version 3
run General-13-20240428-16:41:48-11297
attr configname General
attr datetime 20240428-16:41:48
attr datetimef 20240428-164148
attr experiment General
attr inifile omnetpp.ini
attr iterationvars $0=false
attr iterationvarsd false
attr iterationvarsf false-
attr measurement $0=false
attr network Supermarket
attr processid 11297
attr repetition 3
attr replication #3
attr resultdir results
attr runnumber 13
attr seedset 3
config network Supermarket
config repeat 10
config seed-set 3
config num-rngs 10
config **.use_random_strategy false

vector 0 Supermarket queueSizeOverTime:vector ETV
attr recordingmode vector
attr source updateQueue
attr title queueSizeOverTime
vector 1 Supermarket customerWaitingTime:vector ETV
attr interpolationmode none
attr recordingmode vector
attr source customerFinished
attr title "cust waiting time"
0	7	5.6441435304	1
0	14	11.024892021436	1
0	19	14.581334907678	0
0	25	16.731306421803	1
0	36	22.137996523175	1
0	54	27.666690690443	1
0	65	31.878956506029	0
0	74	33.569204535568	1
0	82	36.384466001765	0
0	96	39.041583659593	1
0	110	43.364371212549	0
0	116	44.308876824798	1
0	119	45.081836941186	0
0	122	46.204649122783	0
0	131	49.648243886419	1
0	147	55.641428358853	1
0	165	60.589266569704	0
0	167	60.810056330754	0
0	171	60.866698106518	1
0	187	65.887904000469	1
0	208	71.173055712367	2
0	228	76.198900553864	2
0	230	76.470117916819	0
0	239	79.670867081498	1
0	247	81.224851045758	1
0	252	82.249331051832	0
0	259	84.807218898439	1
0	265	86.667037644191	1
0	283	91.938942645793	0
0	289	92.602630727925	1
0	310	98.503620271804	2
0	314	99.673238197925	0
0	322	102.61118441308	0
0	329	103.797531348653	1
0	330	103.869672066417	0
0	338	108.30443213158	1
0	343	108.828598077409	1
0	359	114.779634181643	1
0	377	120.01846593339	2
0	389	123.572148431905	1
0	398	125.198097305605	2
0	408	128.570198189467	0
0	412	129.609238482081	0
0	417	130.910969459684	1
0	424	133.287192484012	1
0	434	136.220557675696	1
0	442	138.04882542812	0
0	446	138.964054108248	0
0	453	141.869054014794	1
0	454	142.03988717089	0
0	468	147.850221823435	1
0	480	152.609743104548	0
0	485	153.566144105512	1
0	492	156.651306547222	0
0	500	158.662869954947	1
0	513	163.80801229435	1
0	526	167.122009811107	0
0	538	169.786890089046	1
0	543	171.664202900602	0
0	552	175.607162463712	0
0	556	175.668337492505	1
0	574	181.386741512921	1
0	575	181.70579353592	0
0	591	186.782547291834	1
0	610	191.949119474972	2
0	620	195.285468249583	0
0	629	197.305752790766	1
0	631	198.448901472495	1
0	650	203.201827649027	2
0	657	204.945023052045	0
0	662	206.430472768725	1
0	672	208.679407093441	1
0	679	210.69850351033	0
0	685	212.279842321528	0
0	689	214.446761617554	0
0	693	214.558081056457	1
0	704	219.56172151817	1
0	716	225.37357835588	0
0	722	225.555014999816	1
0	737	231.105651623802	1
0	749	234.980405356969	0
0	759	236.896140750264	1
0	769	240.451491184648	0
0	776	242.109822336816	1
0	797	247.827481277519	2
0	817	253.667138661723	2
0	818	253.668272068492	0
0	820	254.081675868364	1
0	822	254.647850061884	0
0	826	255.885417066048	0
0	832	259.662531648995	1
0	836	261.588467543712	0
0	843	265.408741942141	1
0	847	268.306416877313	1
0	849	268.961275299429	0
0	856	271.238786282483	1
0	867	276.753887678962	1
0	885	282.515402922872	1
0	895	286.151570133631	0
0	903	287.865968663012	1
0	906	288.738421770977	0
0	921	292.880265277577	1
0	931	295.436033236911	0
0	936	297.12390059093	0
0	942	298.83840769669	1
0	958	304.483528397977	1
0	978	309.64453823422	2
0	995	315.113283589249	2
0	997	315.478095875237	0
0	1015	320.125565797323	1
0	1023	322.749977500761	1
0	1036	325.448437837185	2
0	1038	325.705589195364	0
0	1043	326.689106261007	0
0	1046	327.739316452062	1
0	1056	331.244773772545	1
0	1069	335.527141100727	0
0	1072	335.912843587692	0
0	1077	336.730449924012	1
0	1080	338.56216389593	1
0	1090	341.976953248027	1
0	1105	347.913317322265	1
0	1118	351.327154874804	0
0	1126	353.4204315776	1
0	1131	354.610974419512	0
0	1145	358.940596915082	1
0	1152	360.680225741467	0
0	1157	361.732786720269	0
0	1165	364.493361861211	1
0	1166	365.12969824078	0
0	1177	370.016348449279	1
0	1185	373.715310745523	0
0	1193	375.203448397339	1
0	1200	378.275905030778	0
0	1208	380.687368827638	1
0	1227	385.974022208945	1
0	1242	390.528447831514	0
0	1247	391.165186111814	1
0	1248	391.573601689769	0
0	1262	396.253113941288	1
0	1268	398.452373447945	0
0	1281	401.41874264553	1
0	1282	401.814783279899	0
0	1297	406.733796261482	1
0	1319	412.437972374026	2
0	1323	413.924704413045	0
0	1333	417.28499171126	0
0	1337	417.791183697524	1
0	1338	418.162990270648	0
0	1350	423.608793966936	1
0	1361	428.559440407203	1
0	1367	429.310594220877	1
0	1386	435.232556729576	2
0	1396	438.326636412063	0
0	1406	441.160694742341	1
0	1416	444.871623805491	0
0	1419	445.105935951346	1
0	1427	446.880719576961	1
0	1429	447.208863330189	0
0	1442	452.485292778118	0
0	1446	452.521770838414	1
0	1447	452.772381710701	0
0	1457	458.138195357983	1
0	1472	463.274894328321	1
0	1478	465.353538571274	0
0	1490	468.521192495943	1
0	1502	472.598086316022	0
0	1510	474.503564900019	1
0	1527	479.582462358287	2
0	1532	480.761949955252	1
0	1542	483.671508237019	0
0	1547	485.055342217673	1
0	1564	489.480860159613	0
0	1572	491.044743401463	1
0	1583	494.282703999428	0
0	1587	495.279123877988	0
0	1593	496.648957716766	1
0	1610	502.449078701901	1
0	1616	504.483971227542	0
0	1628	507.926466976291	1
0	1647	513.17324947426	2
0	1650	513.615743024971	0
0	1660	517.47931336693	0
0	1667	518.795652092899	1
0	1682	524.495470169232	1
0	1690	526.571991473901	0
0	1701	529.992120947688	1
0	1708	532.041477456223	0
0	1711	532.922409619318	1
0	1723	535.903997811954	1
0	1725	536.790949777467	0
0	1742	541.713217581622	1
0	1750	544.398186541277	0
0	1752	544.422199418183	0
0	1761	547.508351072436	1
0	1762	548.321761227677	0
0	1769	551.844657582581	0
0	1774	553.008743631653	1
0	1786	558.440103007014	1
0	1797	562.817706029863	0
0	1805	564.210821648127	1
0	1820	570.040769574464	1
0	1829	572.753353451962	0
0	1833	573.997326422363	0
0	1840	575.930944357299	1
0	1857	581.92615010566	1
0	1859	582.268149763111	0
0	1868	585.536763072014	0
0	1875	586.984737626742	1
0	1890	592.533549460116	1
0	1892	593.192646420442	0
0	1907	597.842650252161	1
0	1908	598.016205027231	0
0	1911	599.056795817799	0
0	1915	599.835747385979	0
0	1923	603.67417406151	1
0	1933	609.408325517549	1
0	1949	614.575020948424	1
0	1968	620.01709345891	2
0	1970	620.61236595281	0
0	1979	623.626871137995	1
0	1987	625.821773882255	1
0	1996	629.279898352573	0
0	2004	631.147368159376	1
0	2005	631.331977997558	0
0	2023	637.085193155099	1
0	2036	640.873566909692	0
0	2042	642.909454253269	0
0	2046	643.058105067116	1
0	2057	647.797243363223	0
0	2062	648.721294599584	1
0	2063	649.045815932914	0
0	2075	653.844443761277	1
0	2088	659.251159955979	1
0	2097	661.669032547738	0
0	2109	665.090181641047	1
0	2116	666.906569115465	0
0	2118	667.397236460703	0
0	2123	670.509481709332	0
0	2127	670.821890705963	1
0	2132	673.589236548752	0
0	2138	676.714905962115	1
0	2151	682.166336839553	1
0	2165	687.442547515268	1
0	2172	690.430261255008	0
0	2180	692.548265184509	1
0	2186	694.501403050847	0
0	2200	698.254719041754	1
0	2208	699.991537559309	0
0	2213	702.476263656397	0
0	2221	704.237001405331	1
0	2224	705.479473657325	0
0	2235	710.056842658204	1
0	2254	715.97546791006	1
0	2258	716.695933038601	0
0	2271	721.099055740285	1
0	2276	722.356172808796	0
0	2283	725.294837210327	0
0	2289	726.870676036692	1
0	2291	727.854804346455	0
0	2301	732.790019962705	1
0	2303	733.959489149042	0
0	2315	738.715335319053	1
0	2325	742.75174720306	0
0	2329	743.788550365951	1
0	2346	749.665842041258	0
0	2350	749.671900161078	1
0	2359	753.584280981219	0
0	2366	755.061740886189	1
0	2369	756.091435882031	0
0	2379	760.517107391732	1
0	2387	763.742570903854	0
0	2395	766.123139247766	1
0	2396	766.937401633246	0
0	2404	771.213601712722	0
0	2409	771.801892031918	1
0	2419	777.262680942894	1
0	2423	778.788470821456	0
0	2433	782.837205364837	1
0	2444	787.0848324633	0
0	2451	788.526571496858	1
0	2453	789.22077827121	0
0	2462	793.564033336009	0
0	2467	794.144308375197	1
0	2473	797.85094805714	0
0	2478	799.33994896454	1
0	2491	805.262092567517	1
0	2493	806.527185370797	0
0	2504	811.23005882418	1
0	2517	816.020213384881	0
0	2523	816.518407457045	1
0	2538	821.934357594701	1
0	2540	822.773810398419	0
0	2546	823.970532278183	0
0	2555	827.153382151157	1
0	2568	832.252225164559	1
0	2573	833.367789730082	0
0	2587	837.337294857485	1
0	2604	842.516061392382	0
0	2608	843.297128029635	1
0	2611	843.96983943123	0
0	2626	848.631837164519	1
0	2645	853.846764307703	2
0	2667	859.763543523383	2
0	2671	860.959823146231	0
0	2674	861.526564036383	1
0	2687	865.017560829176	1
0	2690	866.429688129111	0
0	2692	866.830648725854	1
0	2705	870.536448994419	1
0	2728	876.177917437628	2
0	2746	881.275342148496	2
0	2747	881.533046220546	1
0	2754	883.619965736639	0
0	2756	884.032600101433	0
0	2766	886.618765886408	1
0	2781	892.592275279808	1
0	2788	894.724720614963	0
0	2790	894.813752130842	1
0	2794	895.972314856366	0
0	2800	898.426320458531	1
0	2813	903.875035788516	0
0	2817	904.04218601389	1
0	2832	909.348984904123	1
0	2850	914.810771578341	0
0	2854	914.906515845797	1
0	2871	920.336242473573	0
0	2877	920.876420359827	1
0	2881	922.264315781417	0
0	2895	926.503853934353	1
0	2900	928.159331249422	0
0	2915	932.081728599734	1
0	2925	935.341163944805	0
0	2930	936.245829849156	0
0	2937	937.535512746546	1
0	2942	939.351667704993	0
0	2950	942.820187129081	0
0	2954	943.363767327742	1
0	2957	945.408687823453	0
0	2965	948.930277786219	1
0	2976	954.234975397123	1
0	2978	954.798785031309	0
0	2990	959.991400568981	1
0	3005	965.839886256496	1
0	3006	965.893270408736	0
0	3013	968.583875707585	0
0	3021	971.190340235832	1
0	3037	976.661107387629	1
0	3057	982.228159304478	2
0	3058	982.342387889166	0
0	3071	986.937912567638	0
0	3075	987.251566367692	1
0	3079	988.885660570349	0
0	3084	991.086951405861	1
0	3090	992.479000771654	1
0	3094	994.184056867733	0
0	3105	998.241669145649	1
0	3120	1003.715448873587	1
0	3133	1008.013773687303	0
0	3136	1008.494656301107	0
0	3140	1009.097838189689	1
0	3150	1012.356867870316	0
0	3152	1012.621921205665	0
0	3157	1014.206505756828	1
0	3168	1019.236470712817	1
0	3185	1024.766639717857	1
0	3188	1025.544046608617	0
0	3204	1030.049890024357	1
0	3227	1035.733576978093	2
0	3246	1040.960887252588	2
0	3256	1043.839690858034	0
0	3258	1044.156814825723	1
0	3260	1044.159140719569	0
0	3267	1046.591048402248	1
0	3268	1046.907845259995	0
0	3279	1052.519993585769	1
0	3280	1052.569510164091	0
0	3293	1057.941043573899	1
0	3294	1058.334790105468	1
0	3308	1063.596450622428	1
0	3325	1068.664278703511	2
0	3326	1068.886935456425	1
0	3331	1070.354226027268	0
0	3343	1074.308923005827	1
0	3360	1078.926708239249	0
0	3366	1079.818728919376	1
0	3383	1084.606024252602	0
0	3388	1084.873134515483	1
0	3400	1088.603519492669	0
0	3408	1090.084670132261	1
0	3417	1092.94850519695	0
0	3425	1095.196033231683	1
0	3440	1100.121726387998	0
0	3447	1101.117510822836	1
0	3449	1101.891934595888	0
0	3456	1103.303561687473	0
0	3465	1107.048379675254	1
0	3472	1110.379822232762	0
0	3480	1112.903333625059	1
0	3494	1118.388938168996	1
0	3498	1119.384332286197	0
0	3503	1120.694449738368	0
0	3513	1123.831047407585	1
0	3525	1128.963665683638	0
0	3530	1129.58898910205	1
0	3533	1130.976148796153	0
0	3544	1134.824900563575	1
0	3557	1140.16852986091	1
0	3579	1145.898428453134	2
0	3593	1150.619137770151	1
0	3599	1151.78014353011	2
0	3611	1154.907110573027	0
0	3615	1156.031207545781	0
0	3617	1156.423674562135	0
0	3621	1157.55622883863	1
0	3636	1163.55282869586	1
0	3654	1169.547821239338	1
0	3656	1169.828335703704	1
0	3674	1174.829616930804	2
0	3690	1179.466909062121	1
0	3698	1180.815413616367	2
0	3717	1186.066549611047	2
0	3724	1188.605578063524	1
0	3736	1191.119971362643	2
0	3741	1192.146882643462	0
0	3745	1192.929660922851	1
0	3757	1196.61989604193	1
0	3761	1197.965158057983	0
0	3775	1202.463907857195	1
0	3785	1205.223769416337	1
0	3798	1208.075620514576	2
0	3809	1212.212935701714	0
0	3814	1213.227605984782	1
0	3818	1213.616984905445	1
0	3836	1218.658736184009	2
0	3838	1219.124412231383	0
0	3843	1220.489780266654	0
0	3852	1224.228352502689	1
0	3858	1226.579767333579	1
0	3868	1229.507407423344	1
0	3884	1234.346320861256	0
0	3889	1234.548009947178	1
0	3893	1236.425451436315	0
0	3905	1239.619016710672	1
0	3926	1245.164638903228	2
0	3943	1250.315327131424	1
0	3947	1250.586141302719	2
0	3954	1252.639828457966	0
0	3957	1253.146303739283	0
0	3966	1256.351365856829	1
0	3980	1261.759493352848	1
0	3996	1266.600640637222	0
0	4003	1267.712436375677	1
0	4012	1270.533983967851	0
0	4022	1273.013127706017	1
0	4036	1276.946296119715	1
0	4045	1278.541626539085	2
0	4047	1279.366506401803	0
0	4051	1280.399599515369	0
0	4060	1283.831490874991	1
0	4064	1284.074690408776	1
0	4074	1289.489939889989	0
0	4079	1290.067517441469	1
0	4092	1295.303843246893	0
0	4097	1295.704863861906	1
0	4111	1300.961576496488	1
0	4133	1306.927944493717	2
0	4147	1310.480877834611	1
0	4158	1312.862114052991	2
0	4161	1313.662777762866	1
0	4170	1316.084700849378	0
0	4179	1318.20192423277	1
0	4185	1319.534380194969	0
0	4193	1322.7718623163	0
0	4199	1324.028390603377	1
0	4203	1325.666752351917	0
0	4215	1329.955101888631	1
0	4229	1335.365415878132	1
0	4237	1337.793785114663	0
0	4240	1338.42631851952	0
0	4243	1339.949759318731	0
0	4248	1341.113921260698	1
0	4258	1346.147318228152	1
0	4274	1351.911317077702	1
0	4285	1354.93321436772	0
0	4295	1357.52406266495	1
0	4302	1360.092355538165	0
0	4314	1362.968515934892	1
0	4320	1364.94267197885	0
0	4332	1368.578043360034	1
0	4338	1371.073700896935	0
0	4350	1374.372157393726	1
0	4352	1374.960258631389	0
0	4355	1375.488829821467	0
0	4367	1380.189904644857	1
0	4381	1385.584073537267	1
0	4384	1386.335658078436	0
0	4396	1389.687970410921	0
0	4404	1391.410049178642	1
0	4408	1393.581599982807	0
0	4410	1394.445174841097	0
0	4415	1396.488987148744	1
0	4427	1402.434033575705	1
0	4443	1408.142917974158	1
0	4464	1413.950436616787	2
0	4466	1414.3852140141	1
0	4487	1419.655662206239	2
0	4505	1425.117231856455	0
0	4509	1425.360737462765	1
0	4515	1427.506917650468	0
0	4527	1431.159105087867	1
0	4539	1435.478595984988	0
0	4546	1437.05859605689	1
0	4558	1440.858691537407	0
0	4567	1442.613143163504	1
0	4569	1443.291673042003	1
0	4574	1444.202845265742	0
0	4579	1446.421186725031	0
0	4586	1448.418658775048	1
0	4603	1454.231073732957	1
0	4612	1456.513894138629	0
0	4622	1459.974592886636	1
0	4643	1465.840275097642	2
0	4644	1466.090549209158	0
0	4646	1466.191671817684	0
0	4650	1468.419976022798	0
0	4656	1470.894428372387	1
0	4664	1476.27523236117	1
0	4668	1476.712359788599	1
0	4684	1481.887063792212	1
0	4707	1487.559560394384	2
0	4708	1487.864709372286	0
0	4729	1493.257026322655	1
0	4743	1497.418075676895	0
0	4745	1497.82034323528	0
0	4751	1498.433090455601	1
0	4760	1502.533659416951	0
0	4765	1503.528341240486	1
0	4769	1505.531792543021	1
0	4775	1507.680584402875	0
0	4781	1509.309596978597	1
0	4797	1515.088452433006	1
0	4814	1520.069353771172	0
0	4820	1520.798290435926	1
0	4834	1525.392115177591	0
0	4841	1526.278634793361	1
0	4852	1529.565988181279	0
0	4860	1531.864407926801	1
0	4871	1535.39843391453	0
0	4879	1537.247459247711	1
0	4890	1540.377760255128	0
0	4894	1541.099663696488	0
0	4901	1542.936451538236	1
0	4917	1548.423348573505	1
0	4919	1549.790853281392	0
0	4924	1550.769332155355	0
0	4933	1553.946385077669	1
0	4934	1555.187056775329	0
0	4938	1556.807903407377	0
0	4944	1558.978605710671	1
0	4956	1564.71114693722	1
0	4970	1569.768522831847	1
0	4985	1574.094523656537	0
0	4993	1575.738660475009	1
0	5014	1581.511542292547	2
0	5035	1587.13415707811	2
0	5043	1589.081965873019	1
0	5049	1590.775965053359	0
0	5053	1592.038045997851	1
0	5058	1592.814927522095	1
0	5064	1594.497352679496	0
0	5071	1597.592119117153	0
0	5076	1598.813239100624	1
0	5090	1603.636659569459	0
0	5092	1604.127627252138	0
0	5096	1604.472831611524	1
0	5108	1609.724085726778	1
0	5125	1615.579755752117	1
0	5139	1620.386338618937	0
0	5145	1621.064735546245	1
0	5159	1625.547480376905	0
0	5166	1626.69211665774	1
0	5174	1629.044416948341	0
0	5184	1631.711094853238	1
0	5205	1637.549874855674	2
0	5206	1637.890652279256	0
0	5214	1639.584190722091	1
0	5223	1642.988907012278	0
0	5227	1643.128806313037	1
0	5244	1648.661069871395	1
0	5264	1653.712389815136	2
0	5268	1655.510072403125	0
0	5281	1659.706813127038	1
0	5293	1663.446498437789	0
0	5297	1664.728684639211	0
0	5301	1664.886967756555	1
0	5302	1665.37684230728	1
0	5308	1667.827634422462	0
0	5315	1670.230248752518	1
0	5330	1676.175947875718	1
0	5351	1681.29614037811	2
0	5361	1684.427602561076	0
0	5371	1686.823392271764	1
0	5389	1691.969934818336	2
0	5405	1695.915625489436	1
0	5411	1697.804812662305	2
0	5419	1700.30728394236	1
0	5435	1703.782878069907	2
0	5443	1706.320031607525	0
0	5454	1709.483127861749	0
0	5458	1709.741140352564	1
0	5460	1710.593591251298	1
0	5467	1712.49573578255	0
0	5475	1714.957136895742	1
0	5491	1720.948809633266	1
0	5509	1726.258663635703	2
0	5521	1730.436011544314	0
0	5527	1731.618738071762	1
0	5528	1731.815531425532	1
0	5532	1732.574002961517	1
0	5552	1737.52671279153	2
0	5554	1738.486161010811	1
0	5557	1738.65401406924	0
0	5563	1741.62517147011	0
0	5569	1742.644591166872	1
0	5584	1748.488081753255	1
0	5598	1752.34162053862	0
0	5607	1754.452933916125	1
0	5609	1755.136048450135	0
0	5623	1760.186975094957	1
0	5639	1765.090007646244	0
0	5645	1765.944465881215	1
0	5647	1766.14369573561	0
0	5653	1767.799468367477	0
0	5663	1771.910156830914	1
0	5669	1774.475899587503	0
0	5678	1777.419598571725	1
0	5688	1782.216919357193	0
0	5694	1782.88295652345	1
0	5710	1788.215916432442	1
0	5722	1793.293368841639	0
0	5728	1794.037848707057	1
0	5733	1795.660766953954	0
0	5743	1798.733208373423	0
0	5749	1799.882819138701	1
0	5756	1803.271336463747	0
0	5764	1804.986145606265	1
0	5777	1810.093706854154	1
0	5799	1816.056266346016	2
0	5807	1818.441045921065	1
0	5813	1820.147165703006	0
0	5819	1821.36922190711	1
0	5840	1827.332534845454	2
0	5842	1827.802212410839	0
0	5859	1832.732943670825	1
0	5860	1832.967531191768	0
0	5876	1838.481137433556	1
0	5878	1839.014523271937	0
0	5883	1840.414042812539	1
0	5896	1844.285333819223	1
0	5915	1850.199824037963	2
0	5924	1852.120593305214	0
0	5928	1853.079529176117	1
0	5936	1855.45409989427	1
0	5956	1861.437283709181	2
0	5961	1863.079347173918	0
0	5975	1867.108466436622	1
0	5983	1870.0323736968	0
0	5989	1871.70126387966	0
0	5996	1873.09841191047	1
0	6010	1878.710134722294	1
0	6014	1879.997435830768	0
0	6030	1884.384648135166	1
0	6031	1884.807188768988	1
0	6047	1889.893790539704	0
0	6050	1890.201326239857	0
0	6054	1890.289607316257	1
0	6066	1895.437557728612	0
0	6071	1895.629317680841	1
0	6080	1899.040321646842	0
0	6086	1900.672865601491	1
0	6100	1905.82374701556	1
0	6104	1906.845568744817	0
0	6119	1911.000246172074	1
0	6134	1915.931702680885	0
0	6139	1916.248646009482	1
0	6154	1920.912020800287	0
0	6158	1921.454504210969	1
0	6172	1925.758681024425	0
0	6179	1927.376485479066	1
0	6193	1931.960115343451	0
0	6197	1932.437446040802	1
0	6212	1936.853390495175	0
0	6219	1938.358891443584	1
0	6223	1939.751381784562	0
0	6239	1943.742181377487	1
0	6244	1945.011084477535	0
0	6256	1949.205327799545	1
0	6273	1954.246635777644	2
0	6282	1956.570206158795	0
0	6289	1958.2688178455	0
0	6296	1959.62135958043	1
0	6300	1962.225602566614	0
0	6302	1962.322800117314	1
0	6312	1965.617441372947	1
0	6330	1970.708868979477	1
0	6343	1974.677289028653	0
0	6350	1975.971508475254	1
0	6355	1977.479150738337	0
0	6357	1977.702836129816	0
0	6366	1981.254842213588	1
0	6367	1981.872641536176	0
0	6382	1986.893887479557	1
0	6397	1992.21683038841	1
0	6406	1994.349424696295	0
0	6409	1995.472819900257	0
0	6416	1997.270554208662	1
0	6430	2002.698553636206	0
0	6434	2002.937263473635	1
0	6448	2008.582128902314	0
0	6452	2008.837863939814	1
0	6469	2014.064257604535	1
0	6480	2017.486469062862	0
0	6489	2019.405634676571	1
0	6492	2019.910777955665	0
0	6509	2024.711222366895	1
0	6513	2026.449874878742	0
0	6520	2029.605746339193	0
0	6525	2029.891745680943	1
0	6543	2035.772456700215	1
0	6553	2038.069198103387	0
0	6555	2038.589978743692	0
0	6566	2041.232376233442	1
0	6580	2047.025236753281	1
0	6600	2052.597158755408	2
0	6602	2053.32089175703	1
0	6609	2055.300631868885	0
0	6620	2058.150393478805	1
0	6626	2060.26378247293	0
0	6630	2061.4673841669	0
0	6639	2063.966159406816	1
0	6650	2068.439104956341	0
0	6655	2069.102937132585	1
0	6671	2075.054958769352	1
0	6689	2080.29829922621	2
0	6706	2085.433030223938	2
0	6719	2089.038608439148	0
0	6723	2089.975306926062	1
0	6729	2091.420438628642	1
0	6743	2096.395560106843	0
0	6749	2097.222925800828	1
0	6771	2103.022767721906	2
0	6773	2103.257424835347	1
0	6790	2108.10448677372	2
0	6796	2109.66748339834	0
0	6811	2113.832442118552	1
0	6816	2115.509307677042	0
0	6820	2116.625644939833	1
0	6830	2119.329826710744	1
0	6834	2120.882681463611	0
0	6847	2124.543535822069	1
0	6851	2125.736989794414	1
0	6869	2130.145155314354	2
0	6871	2130.39755441842	1
0	6894	2135.784252707612	2
0	6903	2138.919580970306	0
0	6912	2141.726819077272	1
0	6916	2142.652142337753	0
0	6918	2142.788682707001	0
0	6929	2147.299192798089	1
0	6944	2153.173773618413	1
0	6946	2153.959170790621	0
0	6960	2158.995533599283	1
0	6967	2160.840174032372	1
0	6980	2164.14570986782	2
0	7001	2169.705859630832	2
0	7011	2172.763108812039	1
0	7017	2174.106960624106	0
0	7021	2174.748755867358	1
0	7022	2174.797476357197	0
0	7025	2174.983993721424	1
0	7033	2178.956786009014	0
0	7039	2179.860246828755	1
0	7041	2180.759091837213	0
0	7050	2184.662805258643	0
0	7054	2185.014808396341	1
0	7067	2190.644362794699	1
0	7082	2196.186675724804	1
0	7091	2198.864365919258	0
0	7093	2199.256585796248	0
0	7101	2201.540308336725	1
0	7116	2207.125518763901	1
0	7136	2212.356628113657	2
0	7152	2217.93863696325	0
0	7156	2218.075615425592	1
0	7158	2218.769165949312	0
0	7174	2223.36672981642	1
0	7176	2223.669334427218	0
0	7182	2225.831652832331	0
0	7185	2226.965305632328	1
0	7192	2228.974106535314	1
0	7205	2234.136375453554	1
0	7219	2236.856405426396	0
0	7230	2239.733956017297	1
0	7232	2240.867534659103	0
0	7239	2242.86698449589	0
0	7248	2245.55878383573	1
0	7252	2248.065272505161	0
0	7263	2251.349462164099	1
0	7279	2256.691007483051	1
0	7284	2258.279439843492	0
0	7297	2261.951340441125	1
0	7320	2267.336774897527	2
0	7327	2269.102676304172	0
0	7339	2273.174629803978	1
0	7340	2273.19670535589	0
0	7342	2273.250834097852	1
0	7358	2278.55603025737	1
0	7362	2279.781908883945	0
0	7372	2283.765393170179	0
0	7377	2284.409269192952	1
0	7393	2290.38193716807	1
0	7397	2291.802177423961	0
0	7410	2294.675086147732	0
0	7412	2295.369642356641	0
0	7416	2296.1420091968	1
0	7428	2301.643981186437	1
0	7443	2307.202372072494	1
0	7446	2308.311293461821	0
0	7452	2310.055677600552	0
0	7460	2312.741462652568	1
0	7469	2316.718750728755	0
0	7475	2318.589360813374	1
0	7480	2320.180497262391	0
0	7491	2324.245918207333	1
0	7501	2328.974803021756	0
0	7506	2329.671533067707	1
0	7507	2330.050047366759	0
0	7511	2331.887876003978	0
0	7518	2335.402780852975	1
0	7528	2340.684635976325	1
0	7542	2345.394608102618	0
0	7546	2345.91923262388	1
0	7555	2349.613456718387	0
0	7560	2351.609121222276	0
0	7564	2351.814743187274	1
0	7565	2352.431524612703	0
0	7569	2355.727820070457	0
0	7573	2357.422331806501	1
0	7580	2362.859419069249	1
0	7592	2368.762180234302	1
0	7607	2373.905689863717	1
0	7615	2376.719098114405	0
0	7626	2379.432260444384	1
0	7632	2381.886181658714	0
0	7637	2383.88301646942	0
0	7644	2385.284337045155	1
0	7658	2390.528954037694	1
0	7680	2395.772739786185	2
0	7685	2398.160866298358	1
0	7693	2399.949578578815	0
0	7701	2401.48217647336	1
0	7703	2402.300284969966	0
0	7719	2406.901901772009	1
0	7737	2412.318846210135	0
0	7741	2412.566315742904	1
0	7742	2412.764062340833	0
0	7747	2414.166627591123	0
0	7757	2417.573957368495	1
0	7771	2422.647944660621	1
0	7789	2428.165466985545	0
0	7793	2428.184766053917	1
0	7812	2433.836813254744	2
0	7813	2434.268578923421	0
0	7824	2437.665647821613	0
0	7831	2439.304654066215	1
0	7837	2441.618143847093	0
0	7845	2444.97793947579	1
0	7853	2447.979182228328	1
0	7858	2449.63708429201	0
0	7863	2450.509709734001	1
0	7874	2455.037912424536	0
0	7879	2455.568988625656	1
0	7895	2460.639191154155	1
0	7904	2463.678047949562	0
0	7910	2465.607845357267	0
0	7914	2465.691317975286	1
0	7922	2469.046668691907	0
0	7931	2470.955447493119	1
0	7946	2476.155615131136	1
0	7953	2478.003628127274	0
0	7964	2481.366994423557	1
0	7970	2484.010405305654	0
0	7982	2486.956017008282	1
0	8003	2492.093515916958	2
0	8004	2492.859703475143	0
0	8019	2497.931773821355	1
0	8025	2499.851586354079	0
0	8034	2502.96491062315	1
0	8036	2503.221337725755	0
0	8040	2503.578060067722	1
0	8048	2506.322344659941	0
0	8055	2508.722142567856	1
0	8056	2508.96903969324	0
0	8068	2514.616684840059	1
0	8084	2519.843741912393	1
0	8103	2524.967505192382	2
0	8117	2528.91598297504	1
0	8125	2530.565692858303	2
0	8130	2532.135565460423	0
0	8137	2534.495949250643	1
0	8139	2534.649783470899	0
0	8146	2536.413519861408	1
0	8152	2539.353852258295	0
0	8155	2540.057480593676	0
0	8160	2541.997121461666	1
0	8162	2543.366660930217	0
0	8170	2547.109596580731	1
0	8180	2552.700580913106	1
0	8194	2557.976235533131	1
0	8207	2561.816781021771	0
0	8216	2563.653497131306	1
0	8235	2568.872600513275	2
0	8251	2573.365488642474	0
0	8261	2574.852290607986	1
0	8265	2576.5612425009	0
0	8270	2578.080268603513	1
0	8279	2580.505845064993	1
0	8295	2585.432439162745	0
0	8299	2585.540088494305	1
0	8320	2590.791465366722	2
0	8336	2594.915244129947	1
0	8339	2596.107465658916	0
0	8341	2596.572097656779	0
0	8346	2596.742126174734	1
0	8351	2598.850492016293	0
0	8360	2602.394078227689	1
0	8376	2608.083745006935	1
0	8382	2610.513653596624	0
0	8393	2613.553651069056	1
0	8397	2614.540908153748	0
0	8411	2619.262142773017	1
0	8434	2625.14694943954	2
0	8443	2627.241890587956	0
0	8449	2629.660974644934	0
0	8455	2631.087946888988	1
0	8457	2631.949190331038	1
0	8466	2634.546474067841	0
0	8474	2636.411873053989	1
0	8490	2642.113274063213	1
0	8501	2645.689296888417	0
0	8508	2647.200334134974	1
0	8514	2649.217156708121	0
0	8526	2652.65645518596	1
0	8543	2657.803992655358	2
0	8546	2658.411973698179	0
0	8560	2662.814930276244	1
0	8575	2666.929241857721	0
0	8582	2668.3778139865	1
0	8588	2670.083062099638	0
0	8602	2674.124428161417	1
0	8611	2677.649555590583	0
0	8620	2679.263684927017	1
0	8624	2680.492505077735	1
0	8628	2681.046208337528	0
0	8636	2683.674315585519	0
0	8644	2685.068721742366	1
0	8656	2690.146565877248	0
0	8662	2690.992881101786	1
0	8672	2695.453176432986	0
0	8678	2696.76837934856	1
0	8697	2702.687566916455	1
0	8703	2704.738497128008	0
0	8717	2708.556965840279	1
0	8726	2710.769335910325	0
0	8737	2714.1076323844	1
0	8743	2716.223471462957	0
0	8754	2719.360592516136	1
0	8762	2721.482537319067	0
0	8775	2724.494944175237	1
0	8794	2729.935114538062	2
0	8806	2733.73698329087	0
0	8816	2735.844720434861	1
0	8825	2738.206472327581	0
0	8829	2739.602031713931	0
0	8831	2739.886527978926	0
0	8834	2741.045947510744	1
0	8838	2741.774196179814	1
0	8845	2746.607397368638	0
0	8849	2747.225915028013	1
0	8850	2747.306941884102	0
0	8859	2752.504960971649	1
0	8868	2758.220238970124	0
0	8872	2758.322900417025	1
0	8876	2760.499443329285	0
0	8883	2764.055298053889	1
0	8885	2764.938261330473	0
0	8892	2769.836926333137	1
0	8904	2775.739167288641	1
0	8916	2780.194033569188	0
0	8923	2781.590124225474	1
0	8939	2787.546893241347	1
0	8941	2788.618893070959	0
0	8954	2793.070962454888	1
0	8957	2794.184984944992	0
0	8971	2798.727160410021	1
0	8977	2801.047726269343	0
0	8990	2804.358931559368	1
0	9002	2808.515172620766	0
0	9009	2809.981029977321	1
0	9023	2814.744321068629	0
0	9028	2815.532297156981	1
0	9039	2819.062218446631	0
0	9043	2820.001067282748	0
0	9045	2820.460383896015	0
0	9050	2821.054258184039	1
0	9060	2826.331530456196	1
0	9066	2829.180290250689	0
0	9077	2832.277109537038	1
0	9090	2837.359876317202	1
0	9091	2837.676584290106	0
0	9109	2843.207290714604	1
0	9130	2849.031638809244	2
0	9146	2853.786580696233	0
0	9150	2854.052020639178	1
0	9152	2854.744751399728	0
0	9159	2856.529999573245	1
0	9168	2859.227355992186	1
0	9183	2863.95758029923	0
0	9190	2865.139369153415	1
0	9202	2869.346048654986	0
0	9209	2870.782185793153	1
0	9229	2875.898159937232	2
0	9240	2879.583473690433	1
0	9249	2881.069891271644	2
0	9251	2881.999756166592	0
0	9255	2882.630227940968	0
0	9263	2886.730875167294	1
0	9278	2892.012562576213	1
0	9297	2897.140276873016	2
0	9304	2899.335995774597	0
0	9309	2900.466466109381	0
0	9312	2901.347430497172	1
0	9317	2902.290284371932	1
0	9331	2906.901927939498	1
0	9338	2908.083344939395	1
0	9352	2912.73430699948	0
0	9356	2913.590740858575	1
0	9377	2919.324650950029	2
0	9379	2919.95265172573	0
0	9394	2924.367807239525	1
0	9396	2925.090729748013	0
0	9410	2929.40168771101	1
0	9412	2930.213805562581	0
0	9420	2933.362121603679	0
0	9426	2935.28753908828	1
0	9430	2935.310387771575	1
0	9445	2940.600439127067	1
0	9464	2945.875255707649	2
0	9471	2948.070542089057	0
0	9475	2949.049502498585	0
0	9483	2951.531096746211	1
0	9484	2952.290146315233	1
0	9496	2956.549252753376	0
0	9500	2956.982899269785	1
0	9513	2962.082621202103	1
0	9515	2962.290187509963	0
0	9534	2967.628725466781	1
0	9555	2972.67875305074	2
0	9559	2974.416400682529	0
0	9573	2977.682909854685	1
0	9583	2980.823588801892	1
0	9595	2983.562574851324	2
0	9598	2984.479819173221	0
0	9600	2984.825873876454	0
0	9613	2989.515917708629	1
0	9615	2989.921868084343	1
0	9629	2994.736697396494	1
0	9638	2997.757874992557	0
0	9648	3000.135368264744	1
0	9659	3004.081944692176	0
0	9666	3005.615223740458	1
0	9676	3008.185968158995	0
0	9686	3011.504684045908	1
0	9709	3017.173533502498	2
0	9718	3020.389317148946	0
0	9728	3023.060272646367	1
0	9741	3026.693189000593	1
0	9750	3028.710394360123	2
0	9760	3031.468416782443	0
0	9762	3031.636950574228	0
0	9770	3033.76842399244	1
0	9775	3036.494223826795	0
0	9784	3038.950025966622	1
0	9786	3039.184530668192	1
0	9801	3044.849016380727	1
0	9807	3046.786529983276	0
0	9818	3050.202635664491	1
0	9836	3055.535326645009	2
0	9838	3055.644467414356	0
0	9855	3061.222439119823	1
0	9861	3063.069378058192	0
0	9872	3066.288556021405	0