version 3
run General-19-20240428-16:41:49-11318
attr configname General
attr datetime 20240428-16:41:49
attr datetimef 20240428-164149
attr experiment General
attr inifile omnetpp.ini
attr iterationvars $0=false
attr iterationvarsd false
attr iterationvarsf false-
attr measurement $0=false
attr network Supermarket
attr processid 11318
attr repetition 9
attr replication #9
attr resultdir results
attr runnumber 19
attr seedset 9
config network Supermarket
config repeat 10
config seed-set 9
config num-rngs 10
config **.use_random_strategy false

vector 0 Supermarket queueSizeOverTime:vector ETV
attr recordingmode vector
attr source updateQueue
attr title queueSizeOverTime
vector 1 Supermarket customerWaitingTime:vector ETV
attr interpolationmode none
attr recordingmode vector
attr source customerFinished
attr title "cust waiting time"
0	7	5.153054198949	1
0	13	10.31191503862	1
0	25	15.957272502595	1
0	30	17.638114313364	0
0	32	18.140998796328	0
0	39	21.532802197152	1
0	49	26.83140937891	1
0	59	31.036165737081	0
0	62	31.583991249093	0
0	66	31.961382790936	1
0	72	36.312664120111	0
0	74	37.593358299113	0
0	78	37.929645178376	1
0	84	43.552883591738	1
0	85	43.649901857019	0
0	93	49.391608163018	1
0	105	55.386682379993	1
0	117	60.400098337561	1
0	118	60.407008554905	0
0	128	64.102975692021	0
0	135	65.706050965704	1
0	150	71.54584099469	1
0	164	75.737871595545	0
0	171	77.253148203603	0
0	175	77.365011608929	1
0	192	82.589881430382	1
0	216	88.580051235624	2
0	221	89.772472148645	0
0	226	91.574575858545	1
0	232	93.577128201144	0
0	236	94.425679555165	1
0	242	96.583092975433	0
0	251	100.132920062172	1
0	268	105.729773394999	1
0	287	110.749675136994	2
0	308	116.297448194123	2
0	330	122.087798575874	2
0	333	122.870344123225	1
0	347	126.779639302638	1
0	352	127.193744816122	2
0	356	128.060728359736	0
0	367	131.500163707419	1
0	374	133.038005704063	1
0	384	135.72348463256	0
0	394	138.360445774862	1
0	413	143.360544614963	2
0	425	146.78391419922	0
0	433	149.296707622245	1
0	439	150.521930089109	1
0	456	155.143216439527	2
0	467	158.536397523133	0
0	471	159.859381282472	0
0	475	160.260334894065	1
0	480	161.731156194818	1
0	491	165.478323307591	1
0	492	165.561225554678	1
0	507	169.301662858811	0
0	515	170.710338854701	1
0	528	174.663056956725	0
0	536	176.368489759047	1
0	553	180.610465740675	0
0	555	181.267491785814	0
0	560	181.829626819589	1
0	564	182.575124878092	0
0	575	187.494355653883	1
0	584	191.258340480975	0
0	590	192.547495509735	1
0	607	198.290602928498	1
0	618	201.399262590453	0
0	621	201.671015851436	0
0	624	203.123586512176	0
0	629	204.043722863314	1
0	640	209.092782713711	1
0	657	214.647565404191	1
0	680	220.217471637768	2
0	690	223.042966498649	0
0	700	225.723149487055	1
0	718	231.139569552853	0
0	722	231.372234927728	1
0	728	233.150314809642	1
0	732	233.758654604204	0
0	746	237.115523179532	1
0	766	243.016937269834	2
0	773	245.748147117327	0
0	784	248.176949262158	1
0	789	249.768675016011	0
0	794	251.672112596691	0
0	797	252.111251090424	1
0	802	253.185215039649	1
0	805	254.052120441924	0
0	814	258.307291435198	0
0	818	258.398227732633	1
0	829	263.981266187741	1
0	844	269.906120620672	1
0	847	270.717467820044	0
0	853	272.944092639841	0
0	861	275.880251512168	1
0	877	281.437041348549	1
0	893	286.305785877983	0
0	897	287.08485272271	1
0	902	288.419157957778	0
0	912	291.949779707591	0
0	917	292.357277658772	1
0	918	292.579709941642	0
0	929	298.115381082291	1
0	935	300.758991786515	0
0	939	302.68657424732	0
0	944	303.413349524144	1
0	956	308.847085871505	1
0	968	314.1412617215	1
0	983	318.435981555614	0
0	990	319.701675317953	1
0	1009	325.120339216902	2
0	1024	330.02323828929	0
0	1029	330.134773694216	1
0	1041	334.413515456957	0
0	1047	335.192982323006	1
0	1057	339.030615400994	0
0	1065	340.621360036548	1
0	1077	344.509315309935	0
0	1084	345.728873774878	1
0	1085	345.970984117483	1
0	1094	348.992368585202	0
0	1103	350.869931890167	1
0	1126	356.846821830611	2
0	1144	361.210862527721	0
0	1147	361.989898457082	1
0	1152	362.230812711411	1
0	1160	365.134011104356	0
0	1171	367.624308207773	1
0	1193	373.336011580892	2
0	1197	375.004884059428	0
0	1212	379.047223386357	1
0	1213	379.851589138273	0
0	1228	384.788793035785	1
0	1230	385.966778380685	1
0	1247	390.293632965071	2
0	1254	392.220817434719	0
0	1268	395.51642064634	1
0	1273	397.770773492059	0
0	1281	399.507820639413	0
0	1289	401.065548969202	1
0	1299	405.212896920045	1
0	1306	406.373758141652	1
0	1307	407.199046793863	0
0	1322	412.294244001622	1
0	1326	413.485724309578	0
0	1335	416.394892231331	0
0	1341	417.625544272598	1
0	1355	422.879159886391	0
0	1360	423.422940127554	1
0	1361	423.955936905697	0
0	1373	429.029701239898	1
0	1384	432.962669129136	0
0	1390	434.569326120432	1
0	1405	439.784318019406	1
0	1423	445.301583003954	2
0	1436	448.85972400266	0
0	1443	450.340280871841	1
0	1457	454.769370152151	1
0	1464	455.969316319565	2
0	1472	458.452320744169	1
0	1474	458.859485104337	0
0	1479	459.909505688821	0
0	1482	460.549394252946	0
0	1486	461.001943438782	1
0	1496	466.395823976959	1
0	1510	471.512008339169	1
0	1511	472.088687685436	0
0	1522	474.955643847121	0
0	1530	477.511585621631	1
0	1536	480.162586689812	0
0	1544	483.153792193162	1
0	1558	488.77187958942	1
0	1567	491.805882374757	0
0	1571	492.351447109135	0
0	1575	493.806372015972	1
0	1591	499.236449941296	1
0	1603	502.657950274299	0
0	1610	504.503911415582	1
0	1615	505.734098357966	0
0	1622	508.242728270242	0
0	1629	510.122966783355	1
0	1631	510.783112424311	0
0	1644	515.547453999287	1
0	1645	515.670230273508	0
0	1657	521.48532227194	1
0	1672	527.060708449688	1
0	1691	532.10340621206	2
0	1700	535.378154902603	0
0	1708	537.13859351771	1
0	1720	540.543479477872	0
0	1729	542.54316032352	1
0	1734	543.856469072287	1
0	1743	546.684561652132	0
0	1751	548.495708447183	1
0	1752	548.840727631468	0
0	1768	554.285065533827	1
0	1786	559.332893085317	0
0	1791	560.168398424518	1
0	1808	566.012747992529	0
0	1813	566.08815865987	1
0	1831	571.609056043672	2
0	1841	574.508248839762	1
0	1854	577.184103628854	2
0	1860	578.470131656506	1
0	1866	580.053929358373	0
0	1876	582.895432259888	1
0	1878	583.038622000489	0
0	1889	587.199317442136	0
0	1895	588.536308438052	1
0	1896	588.642866835814	0
0	1909	594.319233907853	1
0	1923	599.615020086291	1
0	1936	603.982352029532	0
0	1941	604.663307131036	1
0	1942	605.015168443555	0
0	1957	609.973107352388	0
0	1961	610.091972805328	1
0	1977	615.653047407746	1
0	1982	616.906026930666	0
0	1997	621.001741947375	1
0	2006	623.992168450264	0
0	2010	624.553331398988	0
0	2013	625.357025579202	0
0	2018	626.90778796049	1
0	2030	632.177701425042	1
0	2033	633.135362480071	0
0	2042	637.890765272548	1
0	2053	642.204189921731	0
0	2058	643.1997776574	1
0	2075	649.146182994592	1
0	2076	649.307517591866	0
0	2078	649.948607309606	0
0	2086	653.736498217333	0
0	2091	654.837053905941	1
0	2103	660.596344050487	1
0	2109	663.037061448325	0
0	2111	663.393596469426	0
0	2118	666.21323199873	1
0	2131	672.059193645605	1
0	2136	673.76283110294	0
0	2147	677.430837674766	1
0	2151	679.236908202178	0
0	2161	683.088531417773	1
0	2175	688.308586004424	1
0	2197	694.246620489285	2
0	2208	697.594889996342	0
0	2210	697.698436812034	0
0	2216	699.409081920749	1
0	2220	700.802964840317	0
0	2222	701.144937985462	1
0	2230	704.927369317972	1
0	2231	705.191517115105	0
0	2244	710.292151368224	1
0	2249	712.559453037451	0
0	2258	715.922004732537	1
0	2265	719.30186827865	0
0	2271	721.296122695553	1
0	2288	726.895881243749	1
0	2290	727.648307643366	0
0	2300	730.707320979564	0
0	2307	732.25878715911	1
0	2317	736.223970700173	0
0	2323	737.648447399494	1
0	2339	742.965245425003	1
0	2343	744.107052441571	0
0	2360	748.946554706665	1
0	2361	749.901364312041	0
0	2374	754.078895213083	1
0	2384	756.794634582592	0
0	2389	758.222084530164	0
0	2394	759.112647339004	1
0	2400	760.869238552056	0
0	2410	764.689553075704	1
0	2427	770.539633433568	1
0	2448	776.165613525315	2
0	2449	776.383495094837	0
0	2460	780.627860270789	1
0	2468	781.963223532076	1
0	2489	787.900777461707	2
0	2492	789.327900470003	0
0	2500	792.249984334338	0
0	2506	793.170481183567	1
0	2511	795.068874779855	1
0	2522	798.179194505327	1
0	2537	803.300939228619	2
0	2558	809.029620610178	2
0	2562	810.389326597447	1
0	2578	814.459780641366	2
0	2580	815.07557350304	1
0	2588	817.175761769293	0
0	2597	819.629476763308	1
0	2613	824.815042250906	1
0	2617	824.950110024307	2
0	2634	830.003990956582	0
0	2638	830.014206021326	1
0	2658	835.955218561925	2
0	2662	837.144370029331	1
0	2672	839.970896912622	0
0	2678	841.258091925643	1
0	2691	844.833787306446	0
0	2695	846.293367381788	1
0	2700	847.222866350086	1
0	2719	852.19819711568	0
0	2723	852.679586487589	1
0	2736	856.923143861233	0
0	2738	857.066091460526	0
0	2743	857.961475493386	1
0	2747	859.021768211621	0
0	2758	863.575605021091	1
0	2770	868.767267665826	1
0	2783	873.721823883008	0
0	2787	874.293297788827	1
0	2808	880.155181481969	2
0	2828	885.812891887501	2
0	2832	887.016392565681	1
0	2835	887.337190468681	1
0	2843	889.888163495694	0
0	2845	889.907242528628	0
0	2852	891.30524131353	1
0	2859	893.563957022503	0
0	2864	895.35582225083	0
0	2869	896.617778722895	1
0	2878	902.185166580137	1
0	2892	907.380828572437	1
0	2895	908.210733456884	0
0	2899	909.262352354126	0
0	2903	912.031576047651	0
0	2908	913.190424862783	1
0	2922	919.106766936136	1
0	2931	922.939700199408	0
0	2938	924.850923500023	1
0	2950	930.120837815105	1
0	2953	931.350364255486	0
0	2957	932.236767192953	0
0	2960	933.845632919575	0
0	2964	935.337638809345	1
0	2978	941.32129826676	1
0	2987	944.793867634958	0
0	2994	947.092663619899	1
0	3009	952.451261466368	1
0	3011	953.286609347561	0
0	3020	956.242560309124	0
0	3025	957.458854094612	1
0	3036	961.4024613871	0
0	3042	962.618351725162	1
0	3054	967.780807350761	0
0	3058	968.448314971988	1
0	3065	971.106415664311	0
0	3073	973.846328915561	1
0	3082	977.641193855671	0
0	3089	979.121761283836	1
0	3103	984.151184357236	1
0	3124	990.055657413089	2
0	3131	991.962529156589	1
0	3140	994.713836621376	0
0	3144	995.261340624186	1
0	3163	1000.599669889313	2
0	3184	1006.131989329121	2
0	3205	1011.795559482182	2
0	3207	1012.415400006807	0
0	3212	1013.571499000302	1
0	3217	1015.295460764316	1
0	3226	1017.785786665043	1
0	3228	1018.935712240637	1
0	3247	1023.384750658877	2
0	3267	1028.615527693646	2
0	3274	1030.961951609347	1
0	3287	1033.762420947196	2
0	3294	1036.068495250771	0
0	3306	1039.21787136304	1
0	3308	1039.693060047339	1
0	3310	1040.492079175544	1
0	3329	1045.145821175303	2
0	3331	1045.614417403935	0
0	3345	1050.542539081537	0
0	3349	1050.559454183092	1
0	3361	1055.868285184844	1
0	3363	1056.070225599801	0
0	3367	1056.094814410431	1
0	3368	1056.953136886582	0
0	3380	1061.574358111711	1
0	3394	1066.933272972701	1
0	3411	1071.780648949321	0
0	3415	1072.252216705119	1
0	3435	1078.200436365323	2
0	3449	1082.551115867801	1
0	3456	1083.235019395592	2
0	3457	1083.469712643185	0
0	3471	1088.441306912804	1
0	3482	1092.084548478362	0
0	3489	1094.403833460061	1
0	3503	1098.861625918302	0
0	3506	1099.368536238438	0
0	3511	1100.065778754417	1
0	3525	1105.394812724319	1
0	3545	1111.310573406516	2
0	3546	1112.161579097387	0
0	3548	1112.312104247164	1
0	3551	1112.852027498765	1
0	3566	1116.949075295356	1
0	3570	1118.496808672786	0
0	3574	1119.826669446428	0
0	3578	1120.866238692658	0
0	3584	1122.331805118126	1
0	3594	1127.554666182025	1
0	3601	1129.86202555336	0
0	3609	1132.884653218788	1
0	3615	1135.346780205727	0
0	3619	1136.633816873652	0
0	3625	1138.268413069191	1
0	3638	1143.741858251624	1
0	3645	1146.562666548066	0
0	3654	1149.03945344244	1
0	3657	1150.16158596531	0
0	3669	1154.477050685555	1
0	3674	1156.648387183781	0
0	3683	1159.657409638398	1
0	3693	1163.454923419164	0
0	3700	1165.081677450564	1
0	3717	1170.511309246997	1
0	3726	1172.984433603239	0
0	3737	1176.284363561309	1
0	3738	1176.427031842061	0
0	3752	1181.590202194405	1
0	3756	1182.200708545159	0
0	3759	1183.243757006362	0
0	3772	1187.199563934933	1
0	3787	1192.345835820306	1
0	3807	1198.154016644228	2
0	3811	1198.731150217352	0
0	3827	1204.138050454668	1
0	3851	1210.129248019307	2
0	3855	1211.004291976221	1
0	3860	1212.33711817814	1
0	3864	1212.991375643528	0
0	3872	1215.190158655168	1
0	3895	1221.168605487095	2
0	3911	1226.850664372789	2
0	3921	1230.21739977144	0
0	3933	1232.747804277344	1
0	3939	1234.300079947571	0
0	3954	1238.17118296749	1
0	3964	1241.396919092864	1
0	3967	1242.163818639235	1
0	3971	1243.160559747133	0
0	3975	1243.201629662421	1
0	3980	1244.865507319338	0
0	3994	1248.772440502653	1
0	4001	1251.078999319813	0
0	4010	1253.790832293804	0
0	4015	1254.704811150441	1
0	4017	1255.433988071396	0
0	4021	1256.840149820783	0
0	4027	1260.104508272372	1
0	4037	1265.511685010278	1
0	4049	1270.076234812034	0
0	4054	1270.89642105461	1
0	4061	1273.52027792274	0
0	4071	1276.499691792996	1
0	4075	1278.822638775105	0
0	4077	1279.277422203798	0
0	4083	1281.845562922768	1
0	4094	1286.887040236965	1
0	4106	1291.783653164049	0
0	4111	1292.561731408118	1
0	4126	1297.586856721668	1
0	4127	1297.683026422748	0
0	4145	1302.607213367243	1
0	4149	1304.276273014023	0
0	4156	1306.520926224185	0
0	4162	1308.2668537125	1
0	4167	1309.762379185298	0
0	4175	1313.10696604813	0
0	4179	1313.379367731978	1
0	4190	1318.55894278572	1
0	4204	1323.597869187128	1
0	4217	1327.751593720401	0
0	4222	1328.678829978453	1
0	4224	1329.063693152157	0
0	4229	1330.659188458229	0
0	4237	1333.841003477341	1
0	4251	1338.861198191299	1
0	4269	1344.031795900316	2
0	4274	1344.804630490487	0
0	4276	1345.236323797493	0
0	4283	1348.077639041818	0
0	4288	1349.541092796485	1
0	4301	1355.529141911539	1
0	4319	1361.166739496869	1
0	4336	1366.525528280764	2
0	4342	1368.323500325788	1
0	4345	1369.150502185573	0
0	4356	1372.285911877756	0
0	4360	1372.29998990195	1
0	4367	1375.50891271164	1
0	4376	1377.466210606742	1
0	4393	1382.477154705209	2
0	4412	1387.576707733796	2
0	4418	1388.855164370617	1
0	4421	1389.511270362653	1
0	4431	1392.518111068759	0
0	4433	1392.570309048869	0
0	4438	1393.575238826918	1
0	4450	1399.029214300915	0
0	4454	1399.032209916041	1
0	4469	1404.119236608968	1
0	4475	1406.053029514617	0
0	4477	1406.345181220793	0
0	4479	1406.943664002816	0
0	4485	1409.21386367688	1
0	4494	1414.571810374735	0
0	4498	1414.769680702826	1
0	4501	1417.2404571526	0
0	4504	1419.104637368233	0
0	4508	1420.545635742368	1
0	4515	1425.773831820814	1
0	4526	1431.28164053848	1
0	4540	1436.351541982265	1
0	4560	1441.773944760905	2
0	4572	1444.819344312884	0
0	4577	1446.632547445594	1
0	4583	1447.274651324376	1
0	4599	1452.114714340889	0
0	4605	1453.071735728997	1
0	4617	1456.88059742539	0
0	4623	1458.210292791947	1
0	4637	1462.413199666654	0
0	4643	1463.306223332416	1
0	4656	1467.265694893081	0
0	4664	1469.13674903498	1
0	4665	1469.59781741188	0
0	4671	1471.113328087259	0
0	4681	1474.566242819186	1
0	4696	1479.653859345475	1
0	4701	1480.736081176204	0
0	4709	1483.599492138366	0
0	4715	1484.932837411295	1
0	4731	1490.34732011822	1
0	4734	1491.308962184004	0
0	4747	1495.393520162906	1
0	4750	1496.830380632075	0
0	4767	1501.0774524929	1
0	4783	1506.263183636357	0
0	4789	1506.792113232193	1
0	4790	1506.986556092161	0
0	4805	1511.970047708832	0
0	4809	1511.997784165898	1
0	4825	1517.272965013515	1
0	4847	1522.709657202475	2
0	4855	1525.376857729393	0
0	4865	1527.768558473792	1
0	4866	1528.327945837519	0
0	4880	1532.784518657951	1
0	4889	1535.612009070114	0
0	4899	1538.350998039358	1
0	4901	1538.712046652101	1
0	4909	1541.35947000247	0
0	4918	1544.081433446846	0
0	4922	1544.115286617075	1
0	4935	1549.431979702321	1
0	4946	1552.565324148048	0
0	4956	1554.983702040977	1
0	4975	1560.60584208218	0
0	4979	1560.794327222045	1
0	4980	1560.97679758747	0
0	4994	1566.028987362051	1
0	4997	1566.775554046383	0
0	5002	1568.559795281967	0
0	5011	1571.432737117169	1
0	5026	1576.510567860446	1
0	5027	1576.956904789085	0
0	5043	1581.895575683099	1
0	5061	1587.386985906633	2
0	5065	1588.62038050103	0
0	5068	1589.02741303784	0
0	5078	1592.777919974877	1
0	5079	1593.384690054694	0
0	5081	1593.469333840535	1
0	5091	1597.988903449616	1
0	5107	1603.13357155188	1
0	5128	1608.455344337039	2
0	5136	1610.385673359151	0
0	5146	1613.507867443608	1
0	5157	1616.937665479373	0
0	5159	1617.31150184921	0
0	5165	1618.918321487261	1
0	5174	1622.317224961009	1
0	5176	1623.184371502023	0
0	5179	1623.997423474446	0
0	5183	1624.391581209609	1
0	5193	1629.81365362741	1
0	5204	1633.704014592105	0
0	5206	1634.788714527383	0
0	5210	1635.068198027554	1
0	5222	1640.848434513434	1
0	5236	1646.649940973845	1
0	5241	1648.621300924103	0
0	5252	1652.023137720068	1
0	5259	1654.7241134973	0
0	5271	1657.805995751171	1
0	5272	1657.989427149412	0
0	5288	1663.568905544466	1
0	5289	1663.601658461849	0
0	5293	1664.826482098665	0
0	5304	1669.276082831666	1
0	5307	1670.907511428232	0
0	5317	1674.684902533189	1
0	5328	1679.965670150006	0
0	5334	1680.58776046289	1
0	5345	1685.91353732685	0
0	5349	1686.30939525063	1
0	5368	1692.208204538793	1
0	5388	1697.610603651729	2
0	5392	1698.825712878371	1
0	5395	1699.979300591512	0
0	5407	1702.923913224133	1
0	5425	1708.478111479545	0
0	5429	1708.887333450139	1
0	5449	1714.630956339648	2
0	5462	1718.22832593473	0
0	5469	1719.919488069134	1
0	5480	1723.793436019326	1
0	5488	1725.229903105179	2
0	5505	1730.705927130182	0
0	5509	1730.808615920365	1
0	5519	1734.042932686976	0
0	5527	1736.233150730723	0
0	5531	1736.282343490979	1
0	5532	1737.329267695423	1
0	5547	1741.454528058756	0
0	5552	1742.226006972602	1
0	5566	1747.701163172488	1
0	5570	1748.903863195562	0
0	5584	1753.62890170887	1
0	5592	1755.437591856812	0
0	5602	1759.289548089261	1
0	5614	1762.654440471902	0
0	5620	1764.419452434286	0
0	5625	1764.821672838413	1
0	5634	1769.302888247648	0
0	5640	1770.447840137872	1
0	5656	1775.762918957043	1
0	5659	1776.42673267203	0
0	5666	1778.489231004846	0
0	5669	1779.569993411074	0
0	5675	1781.707602525828	1
0	5685	1787.438796452945	1
0	5701	1793.382093981141	1
0	5702	1793.736139575252	0
0	5704	1793.790398694924	0
0	5717	1799.120394497178	1
0	5735	1804.574123325524	1
0	5752	1809.583828962407	2
0	5757	1811.503615827649	1
0	5774	1815.450273933819	2
0	5779	1816.594652137835	1
0	5783	1817.211190775735	0
0	5792	1820.495863725779	0
0	5798	1821.195954504189	1
0	5812	1826.728683115681	1
0	5826	1830.828038161271	0
0	5835	1832.59301567357	1
0	5842	1834.937144738971	0
0	5845	1835.330725697449	0
0	5848	1835.894138314529	0
0	5853	1837.696466541383	1
0	5864	1843.459043608279	1
0	5867	1844.570775986182	0
0	5870	1845.725852690055	0
0	5877	1849.02455889224	1
0	5882	1852.838887482998	0
0	5887	1854.406569453188	1
0	5896	1859.474062171647	0
0	5901	1859.9363742962	1
0	5913	1865.485111153916	1
0	5922	1868.848122900584	0
0	5929	1871.054013996151	1
0	5944	1876.498511099954	1
0	5950	1878.999037388129	0
0	5953	1879.308039841824	0
0	5961	1881.841857186052	1
0	5969	1886.215394221711	0
0	5976	1887.840687588089	1
0	5984	1890.325833011534	0
0	5988	1891.906574936233	0
0	5993	1893.273166764992	1
0	5994	1893.950797650962	0
0	6002	1898.964121056254	1
0	6003	1899.49062748486	0
0	6012	1904.660434130345	1
0	6021	1910.055130341555	1
0	6032	1914.819138549036	0
0	6037	1915.662781721213	1
0	6044	1918.60152990755	0
0	6051	1920.807333268923	1
0	6058	1923.469479506602	0
0	6067	1926.538458385038	1
0	6083	1932.208264349726	1
0	6091	1934.918022332014	0
0	6102	1938.115028871688	1
0	6107	1939.676677897455	0
0	6110	1940.022554938796	0
0	6119	1943.881333157885	1
0	6134	1949.173330734483	1
0	6136	1949.484286960329	0
0	6151	1954.930223840288	1
0	6169	1960.293269895016	2
0	6182	1964.784025399014	0
0	6186	1965.704878857592	0
0	6191	1966.23121939646	1
0	6192	1966.360436058371	1
0	6199	1969.111599621478	0
0	6206	1971.436547000193	1
0	6207	1971.697935293544	0
0	6210	1972.941582962754	0
0	6217	1976.629304201341	1
0	6219	1977.514891129918	0
0	6226	1982.263325504957	1
0	6240	1988.172273918053	1
0	6256	1993.49413327826	1
0	6260	1994.937628671175	0
0	6271	1998.730160149977	1
0	6283	2003.083366825826	0
0	6288	2003.946141595019	1
0	6294	2005.201683581573	0
0	6309	2009.192205035824	1
0	6329	2014.833002863915	2
0	6339	2017.997561159077	0
0	6348	2019.91611164971	1
0	6358	2022.730509135404	0
0	6368	2025.095085331003	1
0	6369	2025.509373487436	0
0	6382	2030.594094188881	0
0	6387	2030.814480247904	1
0	6391	2032.719796424614	1
0	6404	2036.393526541764	1
0	6424	2041.723789611129	2
0	6440	2046.874739607094	0
0	6444	2046.936006031228	1
0	6449	2048.159893139146	0
0	6452	2049.013993633093	1
0	6462	2052.098214625144	1
0	6469	2053.719977456255	0
0	6477	2056.177942135486	0
0	6483	2057.378844122864	1
0	6492	2061.156339843286	0
0	6501	2063.278636682309	1
0	6518	2068.449623661345	1
0	6526	2071.473379345025	0
0	6537	2073.985461938191	1
0	6546	2077.048864202338	0
0	6556	2079.023177091028	1
0	6561	2080.850435795607	0
0	6566	2082.510048508873	0
0	6572	2084.695038672998	1
0	6581	2088.053997264588	0
0	6589	2090.47109932452	1
0	6597	2093.851107025747	0
0	6605	2096.248329025456	1
0	6606	2096.473285603099	0
0	6618	2101.33157751895	1
0	6631	2106.514765343391	1
0	6637	2108.61566048837	0
0	6639	2108.779663243209	0
0	6650	2112.412612122479	1
0	6665	2118.067692482607	1
0	6669	2119.778211758351	0
0	6684	2123.706641938999	1
0	6687	2124.538971685916	0
0	6690	2124.940875529307	0
0	6701	2129.409333314044	1
0	6719	2135.180780633349	1
0	6731	2138.097229565142	0
0	6741	2140.439479337303	1
0	6747	2142.985619144511	0
0	6758	2146.109488533689	0
0	6762	2146.315988568353	1
0	6780	2151.884140865641	1
0	6786	2153.719354778175	0
0	6801	2157.264175196873	1
0	6804	2158.165049809262	0
0	6820	2162.580470318204	1
0	6830	2165.399219717479	0
0	6840	2167.989482829577	1
0	6860	2173.379493204874	2
0	6865	2174.674990851659	1
0	6882	2178.92029913794	2
0	6892	2181.635871759265	0
0	6895	2181.852524633632	0
0	6902	2184.756492563521	1
0	6918	2189.994248486354	1
0	6931	2194.521736070511	0
0	6937	2195.667654592774	1
0	6958	2201.058949680996	2
0	6959	2201.50451086892	0
0	6971	2205.626628242546	1
0	6978	2206.928017683091	1
0	6980	2207.859159336539	0
0	6993	2212.270736634728	1
0	7007	2217.111907101116	0
0	7012	2217.330157950284	1
0	7027	2221.422923939533	1
0	7033	2222.54830649518	2
0	7054	2228.049634007966	2
0	7074	2233.700544311894	2
0	7075	2233.767478073597	1
0	7081	2234.801937654728	1
0	7086	2236.274263274037	0
0	7098	2239.592523584371	1
0	7118	2245.282235760703	2
0	7124	2246.903199796798	1
0	7126	2247.409278578472	0
0	7139	2251.023992071389	1
0	7146	2253.061305756097	1
0	7159	2256.385609402084	2
0	7168	2259.066266624371	0
0	7179	2262.263281650604	1
0	7199	2267.282456516051	2
0	7204	2268.458946359229	1
0	7206	2268.814688537383	0
0	7216	2272.816804306112	0
0	7220	2272.932146130824	1
0	7228	2275.391331447406	0
0	7237	2278.411405561488	1
0	7247	2281.87198891991	1
0	7258	2284.269653137071	1
0	7280	2289.667807911286	2
0	7294	2292.639964469704	0
0	7298	2293.612289571781	0
0	7305	2295.415275429837	1
0	7306	2295.912925362932	1
0	7319	2300.418812983665	1
0	7332	2304.89252156543	0
0	7338	2305.611314998935	1
0	7357	2310.971610916308	2
0	7367	2314.305755004399	0
0	7379	2316.835164307146	1
0	7380	2317.302830675963	0
0	7397	2322.227829892882	1
0	7400	2323.591443026087	1
0	7417	2327.442037913245	2
0	7419	2328.053524681947	0
0	7431	2332.216477405274	0
0	7435	2332.929550614669	1
0	7450	2338.165014344263	1
0	7453	2338.69412094098	0
0	7469	2343.887540645893	1
0	7485	2348.902990935366	2
0	7507	2354.855215115236	2
0	7517	2357.86267691641	1
0	7530	2360.450081322571	2
0	7531	2360.765244122473	1
0	7533	2361.125857278931	1
0	7553	2366.439683737229	2
0	7556	2367.554670241889	0
0	7572	2372.226909567831	1
0	7578	2374.098241336407	0
0	7581	2374.891825909835	0
0	7587	2377.25005053775	1
0	7589	2377.484076902497	1
0	7600	2382.298995708577	0
0	7605	2383.1255391431	1
0	7608	2384.388443621568	0
0	7611	2385.363709057097	1
0	7615	2386.012458753886	0
0	7620	2388.381057740418	1
0	7632	2394.081763554128	1
0	7637	2396.063772440651	0
0	7647	2400.079088211289	1
0	7652	2401.694702815611	0
0	7654	2402.403234297988	0
0	7661	2405.789751468689	1
0	7672	2411.405785712411	1
0	7687	2417.323162164071	1
0	7688	2417.767947982063	0
0	7703	2422.450354810103	1
0	7707	2423.346468090774	0
0	7713	2424.788026977327	0
0	7722	2428.028708332216	1
0	7738	2433.288165828909	1
0	7760	2439.207848572868	2
0	7778	2444.773139024849	2
0	7779	2444.839533973136	1
0	7791	2448.112696750555	0
0	7794	2448.749854208899	1
0	7796	2449.68579916423	0
0	7801	2450.012713518689	1
0	7806	2452.036122427669	0
0	7810	2453.632286833363	0
0	7812	2453.955336464099	0
0	7816	2455.436418979891	1
0	7822	2460.567320929837	1
0	7833	2466.346186978041	1
0	7850	2472.123055197528	1
0	7858	2475.287362222789	0
0	7865	2477.511814822905	0
0	7869	2477.831349327458	1
0	7885	2483.201550813854	1
0	7895	2486.475888488347	0
0	7904	2488.992825885067	1
0	7910	2490.776377613769	0
0	7921	2494.088885900794	1
0	7940	2499.161948104386	2
0	7942	2499.807857369186	1
0	7944	2499.876902868155	0
0	7954	2503.152379245262	0
0	7960	2504.475521608951	1
0	7965	2506.590744006561	0
0	7974	2509.574166190342	1
0	7981	2512.903451025948	0
0	7989	2515.317536393643	1
0	8005	2521.091777296966	0
0	8010	2521.315521687266	1
0	8024	2527.026560356837	1
0	8045	2532.908095673422	2
0	8047	2533.816692340067	0
0	8051	2533.869683518654	0
0	8060	2538.020107257177	1
0	8062	2538.760933818293	0
0	8068	2540.326449344398	0
0	8074	2543.368113277943	1
0	8085	2548.578262232707	1
0	8089	2549.970141099763	1
0	8102	2554.304670105918	1
0	8122	2559.856523466759	2
0	8123	2559.955379682241	0
0	8132	2563.268915890364	0
0	8140	2565.447279694487	1
0	8145	2567.483537299326	0
0	8151	2570.28336274705	1
0	8155	2570.892543880964	1
0	8171	2576.429541576417	1
0	8178	2577.850567000335	0
0	8192	2582.411440738473	1
0	8212	2587.491543789158	2
0	8223	2590.827187767133	0
0	8228	2592.463197214059	1
0	8234	2593.301236326337	1
0	8236	2593.916589965108	0
0	8253	2598.745079173237	1
0	8258	2600.448505730947	0
0	8265	2602.556858476946	0
0	8270	2603.783630358983	1
0	8278	2606.571980335864	0
0	8283	2608.297465199717	0
0	8288	2609.681361335559	1
0	8291	2611.669551931667	0
0	8298	2615.026067280673	1
0	8306	2619.364476536281	0
0	8311	2620.045678419989	1
0	8323	2625.189829787935	1
0	8332	2628.64043081237	0
0	8340	2630.6942524421	1
0	8354	2635.891279055268	1
0	8375	2641.665420497764	2
0	8380	2642.933228611477	0
0	8393	2646.723296655338	1
0	8413	2651.915183013068	2
0	8422	2654.55962695379	0
0	8433	2657.586276339596	1
0	8434	2657.641622262423	1
0	8454	2663.209299916398	2
0	8461	2666.259603914105	0
0	8465	2667.674562998578	0
0	8470	2668.883563707579	1
0	8489	2674.481955174586	1
0	8494	2676.430922704861	1
0	8510	2679.656730776882	2
0	8511	2680.255138655543	1
0	8532	2685.531043745108	2
0	8552	2691.348890060788	2
0	8574	2696.986957363315	2
0	8577	2698.307134321887	1
0	8584	2699.858862212039	1
0	8586	2699.885604697858	1
0	8600	2702.935866131909	2
0	8605	2704.283424109571	1
0	8614	2708.055578405732	1
0	8620	2708.843828366833	2
0	8642	2714.602526048195	2
0	8649	2716.547703066259	1
0	8655	2718.186925273033	0
0	8666	2720.584920078513	1
0	8670	2721.842747720886	0
0	8684	2726.119581162694	1
0	8697	2731.080040628903	0
0	8701	2731.760763898256	1
0	8712	2735.196469438838	1
0	8719	2736.85344166495	0
0	8724	2736.991610870461	1
0	8741	2742.344573206964	2
0	8766	2748.259574742985	2
0	8769	2749.976995964418	0
0	8771	2750.093260385909	0
0	8782	2753.863139750666	1
0	8794	2759.284901742007	1
0	8799	2759.732538654233	1
0	8811	2763.427420910209	1
0	8817	2765.076090940737	0
0	8821	2765.329387525792	1
0	8828	2766.985382575538	0
0	8841	2770.876431106587	1
0	8859	2776.144012840928	2
0	8860	2776.550648420348	0
0	8875	2781.526200221965	0
0	8880	2781.888955235945	1
0	8885	2784.12567182933	1
0	8890	2785.908856349064	0
0	8897	2786.896250704767	1
0	8902	2789.055975238554	0
0	8909	2791.569575665052	0
0	8913	2792.057935587128	1
0	8925	2797.828942376885	1
0	8942	2803.593835827194	1
0	8943	2804.071684524536	0
0	8954	2807.596218426709	0
0	8957	2808.207699042161	0
0	8961	2808.715623742433	1
0	8972	2813.876766729399	1
0	8979	2816.743337872785	0
0	8987	2819.622350947463	1
0	9003	2825.442785549673	1
0	9011	2828.419927361185	0
0	9023	2831.290857956043	1
0	9029	2834.039510915051	0
0	9041	2837.246125345115	1
0	9048	2840.173178096416	0
0	9061	2843.245336482065	1
0	9063	2844.704154712147	0
0	9077	2848.577427773267	1
0	9096	2853.988639220942	0
0	9100	2854.339362492781	1
0	9108	2856.261945771052	0
0	9115	2858.813700164082	0
0	9118	2859.7323644018	0
0	9122	2860.263697680548	1
0	9130	2865.294244551562	0
0	9134	2866.150118249698	1
0	9144	2871.508239371	1
0	9157	2876.498430888518	0
0	9162	2876.972005455518	1
0	9178	2882.656756409906	1
0	9194	2887.324419968175	0
0	9201	2888.426623908101	1
0	9222	2894.297755586911	2
0	9235	2899.126331597912	0
0	9238	2899.743214351821	0
0	9240	2900.043244329046	0
0	9244	2900.292380550873	1
0	9255	2905.834174059794	1
0	9260	2907.82833611604	0
0	9270	2911.330596207405	1
0	9286	2916.365719394522	1
0	9287	2916.601007829766	1
0	9304	2921.518959829347	2
0	9313	2924.596838904773	1
0	9317	2925.471301869719	0
0	9325	2926.99218323547	1
0	9326	2927.119049600088	0
0	9341	2932.11005465034	1
0	9343	2932.7576303801	0
0	9351	2935.885137834233	0
0	9358	2937.739294724069	1
0	9364	2940.637487925468	0
0	9372	2943.314345039423	1
0	9377	2944.883426582089	0
0	9387	2948.907186546359	1
0	9404	2954.710929889694	1
0	9407	2955.368890043342	0
0	9425	2960.674865778066	1
0	9429	2961.758897840271	0
0	9432	2962.684189802383	0
0	9443	2966.589088004777	1
0	9460	2972.479438399659	1
0	9461	2972.748153839724	0
0	9474	2977.507550001839	1
0	9482	2979.406155804401	0
0	9488	2982.164391612514	0
0	9493	2982.725402581734	1
0	9508	2988.380974780298	1
0	9526	2993.589985619295	2
0	9532	2995.175994116926	0
0	9545	2998.895077704681	1
0	9547	2999.618647986088	1
0	9553	3001.359965882144	0
0	9560	3003.753139234028	0
0	9565	3004.202013933562	1
0	9582	3010.10006823274	1
0	9602	3015.952471550551	2
0	9604	3016.381626491197	0
0	9621	3021.560741804537	1
0	9631	3025.058611362937	0
0	9634	3025.418649712923	0
0	9640	3026.970491381359	1
0	9641	3027.346281470029	0
0	9653	3032.476272564378	1
0	9657	3033.90189264237	1
0	9669	3038.097520790525	1
0	9689	3043.380034067665	2
0	9699	3046.174331894957	0
0	9703	3046.713498332068	0