version 3
run General-7-20240430-20:30:43-5479
attr configname General
attr datetime 20240430-20:30:43
attr datetimef 20240430-203043
attr experiment General
attr inifile omnetpp.ini
attr iterationvars $0=true
attr iterationvarsd true
attr iterationvarsf true-
attr measurement $0=true
attr network Supermarket
attr processid 5479
attr repetition 7
attr replication #7
attr resultdir results
attr runnumber 7
attr seedset 7
config network Supermarket
config repeat 10
config num-rngs 10
config **.use_random_strategy true

vector 0 Supermarket queueSizeOverTime:vector ETV
attr recordingmode vector
attr source updateQueue
attr title queueSizeOverTime
vector 1 Supermarket customerWaitingTime:vector ETV
attr interpolationmode none
attr recordingmode vector
attr source customerFinished
attr title "cust waiting time"
0	7	5.568940220401	1
0	14	11.226593125146	1
0	27	16.811224403326	1
0	33	19.996681347839	0
0	40	21.981797739398	1
0	48	25.572636027819	0
0	54	27.129805843346	1
0	71	32.471408788813	2
0	89	37.964929590467	1
0	97	40.388661165021	0
0	102	41.835246655624	0
0	108	43.184736221563	3
0	119	48.447020888096	2
0	126	51.989612763865	1
0	128	52.458728832542	2
0	130	53.160898079514	1
0	136	53.978519498138	2
0	146	59.022224148037	3
0	159	64.683901698329	1
0	170	69.515880452352	0
0	175	69.87461689557	2
0	179	72.395795873019	1
0	186	75.000563092065	1
0	201	80.238301242703	2
0	205	82.113754034859	2
0	207	82.136442800869	0
0	217	86.224025859499	1
0	218	86.638944055073	1
0	229	91.033063973652	0
0	235	92.199608705474	1
0	252	97.20450214646	2
0	255	99.100789511694	1
0	268	102.639358056478	1
0	283	107.589819347604	0
0	288	107.983663490742	3
0	306	113.472009101186	4
0	307	113.596839665086	3
0	327	118.930661797293	2
0	343	124.667831407164	3
0	344	124.69645694096	0
0	353	129.096968637197	2
0	357	129.700290439653	1
0	369	134.460512233666	2
0	374	135.07332736417	1
0	378	136.350375592592	1
0	394	140.439135386379	2
0	407	144.744935055733	0
0	414	146.027216657767	3
0	427	150.632702504634	0
0	433	151.942153159533	1
0	448	157.149261854593	2
0	453	159.291690042596	1
0	465	162.201443684757	4
0	469	163.499608206098	3
0	482	167.206907007847	1
0	500	172.427440575328	2
0	510	174.905816042684	1
0	513	175.26919927076	0
0	517	175.950512836343	0
0	524	178.377545818923	3
0	526	179.576959573436	2
0	528	179.635699050155	2
0	539	183.871715376856	1
0	551	188.538037635041	1
0	556	189.014638705183	2
0	562	191.187697968447	1
0	573	194.619111278564	2
0	580	196.910443197707	0
0	588	200.449047881183	3
0	593	203.008924990548	2
0	602	205.98373835674	3
0	615	211.76835932164	4
0	627	217.363857665104	1
0	635	219.517613335863	1
0	645	223.151258158502	2
0	663	228.911883786092	2
0	674	233.817285777889	3
0	678	233.951678409478	3
0	693	239.603987387618	4
0	698	241.974744924815	3
0	702	242.73985450494	2
0	712	245.27420489537	3
0	722	249.539117467123	2
0	724	249.698460498131	2
0	731	251.167689309459	3
0	735	252.6304156757	1
0	749	257.081648641968	2
0	757	259.851072450872	1
0	764	262.298085537044	1
0	766	262.63622501004	1
0	775	265.608324226339	2
0	787	268.287990015003	2
0	801	272.543060574219	1
0	809	273.417598025411	3
0	810	273.846368953589	0
0	814	275.002177351035	2
0	827	278.649164819395	3
0	841	283.667718689194	1
0	842	283.748885201293	0
0	845	284.489025984662	0
0	858	289.648954901382	1
0	874	295.112363578755	1
0	892	300.216811564521	2
0	913	306.153567639415	2
0	916	306.795843400639	2
0	923	308.377946115334	1
0	938	311.751889760376	2
0	962	317.688349350824	2
0	963	317.978949090585	1
0	966	318.670506760365	1
0	984	323.228688406994	2
0	992	326.20908765891	1
0	994	326.429611674397	0
0	1000	327.792396297557	1
0	1006	328.895710711371	2
0	1019	334.327767549784	0
0	1023	334.586769521938	3
0	1032	340.315393670349	1
0	1037	340.463570076975	1
0	1051	346.336205333474	1
0	1073	352.246623048794	2
0	1076	353.474522921958	1
0	1079	354.083381213595	2
0	1094	357.813734643629	2
0	1109	361.924005466516	0
0	1111	362.146260680862	1
0	1117	363.302995209351	3
0	1133	368.588761939665	0
0	1138	369.30025750329	4
0	1139	370.188617736688	3
0	1145	372.664276028173	0
0	1151	374.487769618865	4
0	1158	380.279490504416	1
0	1166	385.212357906044	0
0	1171	385.549555258362	1
0	1181	390.905008571225	5
0	1195	396.502369352386	6
0	1202	399.932904323335	5
0	1207	401.505124631107	1
0	1213	403.623880812202	0
0	1222	407.314411989648	2
0	1224	408.126689015194	4
0	1228	409.882108078924	1
0	1237	413.139469011689	1
0	1241	415.373335322953	3
0	1246	416.263852434006	2
0	1253	418.448664696424	3
0	1270	423.982420489427	2
0	1285	429.593814453811	4
0	1295	433.286950103361	3
0	1302	435.128500206398	4
0	1304	435.812012602232	0
0	1306	436.042742496126	1
0	1317	440.904329235202	1
0	1333	446.467564963505	2
0	1351	451.796181843153	3
0	1363	457.208418358352	0
0	1367	457.377669338372	1
0	1369	458.101326267121	3
0	1382	462.553907321768	2
0	1386	463.456474312816	2
0	1388	463.971212911654	1
0	1401	467.591147179484	4
0	1417	473.060992333574	5
0	1432	478.310513839127	2
0	1435	479.361888456161	4
0	1450	484.041137089023	3
0	1456	485.34770239913	1
0	1470	489.976225234802	4
0	1477	493.011484161953	3
0	1486	495.112970557298	4
0	1502	500.778433978093	2
0	1516	506.083930680299	3
0	1521	506.694145396586	5
0	1532	511.14309422474	4
0	1538	512.003271762982	3
0	1547	516.003594648561	2
0	1554	517.29593116115	1
0	1566	521.841348728749	3
0	1574	522.97732116026	4
0	1575	523.356832103573	3
0	1583	525.167245741819	2
0	1597	528.39125693706	4
0	1616	533.900030805731	2
0	1629	537.523436426306	1
0	1637	539.126865151107	5
0	1640	539.918331126799	1
0	1660	544.542193772506	3
0	1668	547.014031959816	4
0	1679	549.971264809372	2
0	1699	555.415431182484	2
0	1703	555.65799732553	3
0	1722	561.553611097626	4
0	1742	566.853266853841	2
0	1748	568.60296694632	1
0	1754	570.285520277452	1
0	1761	571.857718467481	5
0	1775	575.6878080928	0
0	1777	576.163692405801	3
0	1785	577.591511755485	6
0	1786	577.767628664503	5
0	1790	579.246680865651	2
0	1802	582.620243309766	6
0	1804	583.543823963617	5
0	1816	588.10917542712	3
0	1832	593.607524985915	4
0	1842	597.757726728571	0
0	1848	599.423611138483	1
0	1857	603.102326299996	0
0	1864	604.485286515673	1
0	1879	609.363776577993	3
0	1883	610.116761094661	4
0	1888	610.365484742915	4
0	1889	610.634555593718	0
0	1902	616.050012894675	1
0	1917	622.047703972088	5
0	1933	627.351447384108	6
0	1947	632.151108753412	3
0	1952	633.149773184212	7
0	1953	633.221756790885	6
0	1962	636.249426759198	0
0	1969	638.642291261584	4
0	1981	643.901307302995	5
0	1992	649.383191917559	6
0	2000	654.024700216022	5
0	2004	654.490223472707	1
0	2018	659.956991649933	2
0	2026	663.405529283927	5
0	2033	665.146490919173	6
0	2044	670.15213523363	5
0	2048	670.748437273085	3
0	2063	676.085968425033	1
0	2065	676.813662363799	2
0	2081	681.404292975321	6
0	2084	681.637024519151	1
0	2105	686.55664358358	7
0	2122	692.324029602229	0
0	2126	692.419829535299	1
0	2134	694.492273554789	0
0	2140	695.688560394811	6
0	2147	697.660244688393	0
0	2151	697.916508033407	1
0	2152	698.176274456553	4
0	2168	703.456490127371	7
0	2178	707.313209582939	3
0	2181	708.634271848019	2
0	2187	709.148495198462	1
0	2204	714.175642861754	3
0	2224	719.491854936818	2
0	2243	724.669644001175	8
0	2244	724.736339500297	7
0	2249	726.134537737003	1
0	2267	730.663163635183	2
0	2272	732.623443358697	0
0	2285	736.509256294232	4
0	2286	736.973760063764	3
0	2297	741.214359755166	2
0	2301	741.618485291258	3
0	2305	742.309620154093	2
0	2318	746.895719946597	1
0	2330	750.486929493963	6
0	2340	752.405248554891	7
0	2348	754.960275210211	1
0	2362	758.302073240748	2
0	2368	759.902605197749	6
0	2377	761.963253634174	5
0	2380	762.233161624059	1
0	2382	762.735562283782	0
0	2388	763.628361600686	1
0	2407	769.533084215133	2
0	2409	769.979231499836	1
0	2428	774.882078607569	6
0	2450	780.626849998722	2
0	2453	781.731122878388	5
0	2460	783.896428324519	1
0	2462	784.141373739812	0
0	2471	786.233904890951	1
0	2490	791.425164899207	1
0	2496	792.212688672824	2
0	2514	797.2724769488	2
0	2520	799.251670705389	0
0	2533	802.454744464022	1
0	2553	807.672021390407	6
0	2560	810.791451003875	5
0	2563	811.490246631789	1
0	2565	812.223826899549	1
0	2571	812.961693351857	0
0	2575	813.066712684233	1
0	2577	814.498090815499	0
0	2590	818.068486917068	2
0	2594	819.14907132311	4
0	2607	824.062281492402	3
0	2613	826.435058680718	0
0	2622	829.107001449217	1
0	2626	830.619552160267	2
0	2638	834.354499915385	5
0	2646	837.467190858562	1
0	2650	839.087635362174	0
0	2656	839.997222294103	1
0	2661	841.999495430503	0
0	2670	845.575218398127	1
0	2677	848.568352748992	0
0	2683	850.739319429969	1
0	2684	850.969975271968	4
0	2702	856.708505907565	2
0	2718	862.701004682112	2
0	2728	867.211086777042	1
0	2734	868.583151948176	1
0	2757	873.735971482474	2
0	2762	875.895051379927	1
0	2775	879.520729084968	2
0	2782	881.779511402831	1
0	2788	882.968834282488	3
0	2794	884.423035127002	0
0	2798	884.765067619508	2
0	2809	888.39030231303	1
0	2816	889.936977154346	3
0	2819	890.619529451833	2
0	2821	891.059119069019	2
0	2832	895.38805975905	3
0	2847	900.971155141716	1
0	2871	906.6333513374	3
0	2877	908.329438731427	0
0	2889	912.052148811755	1
0	2901	915.680482353436	0
0	2908	917.06352090603	2
0	2912	917.927913770548	2
0	2922	920.764252453469	2
0	2929	922.072730519579	3
0	2944	927.678411586213	4
0	2956	931.900055066691	1
0	2958	932.504637716457	3
0	2964	933.613682659113	2
0	2973	936.81936804613	1
0	2976	937.650754736744	1
0	2980	938.61184737692	0
0	2986	939.07700313791	4
0	2993	944.691271556779	3
0	2998	944.810731440087	1
0	3006	947.629046857827	2
0	3015	950.002240224279	2
0	3034	955.586158225782	2
0	3049	960.95101528196	3
0	3055	963.225551237591	2
0	3069	966.377745758745	3
0	3084	971.839527604872	3
0	3088	973.34443162976	2
0	3094	976.032710615785	2
0	3098	976.773556854466	1
0	3102	977.146858942698	2
0	3108	979.209687996078	1
0	3115	982.553596485064	1
0	3120	982.789776057706	2
0	3125	984.032673532964	1
0	3138	987.830678528643	1
0	3145	989.500941857116	0
0	3158	993.089866348312	3
0	3167	997.455028873057	2
0	3172	998.156931768174	1
0	3186	1003.297192852485	0
0	3192	1004.085056907267	1
0	3211	1009.289942177015	2
0	3215	1010.544111946721	1
0	3230	1014.48374899291	1
0	3234	1014.570604356707	2
0	3240	1016.318950533988	0
0	3254	1020.52587677399	3
0	3266	1025.955784196736	2
0	3272	1026.361483125019	1
0	3274	1027.424571583865	0
0	3277	1027.633817575177	1
0	3291	1031.981442840307	2
0	3307	1037.081691500035	2
0	3311	1038.913707333387	0
0	3320	1042.470525742045	3
0	3323	1044.376259478165	2
0	3325	1044.591653443876	1
0	3336	1048.387391970961	2
0	3347	1054.370704939591	1
0	3363	1059.964558779264	3
0	3364	1059.97452655784	0
0	3377	1065.928851634964	1
0	3379	1066.199069204166	2
0	3392	1071.460235577776	1
0	3396	1071.827559707455	2
0	3411	1076.883042218165	3
0	3419	1079.8414401142	2
0	3423	1081.187403914286	1
0	3425	1081.858109472436	0
0	3430	1082.025844707155	2
0	3438	1087.461487831548	1
0	3442	1087.611381930999	1
0	3459	1092.677033144516	2
0	3465	1095.054175586679	1
0	3476	1098.588107550285	2
0	3493	1104.386138614967	3
0	3496	1105.161659906626	0
0	3507	1109.554605974119	4
0	3510	1110.759308095441	1
0	3515	1113.47749040986	3
0	3521	1114.594745358221	1
0	3537	1120.536932549208	1
0	3542	1122.940237324104	0
0	3552	1125.950804978143	2
0	3556	1126.343538754155	3
0	3571	1131.400480788668	2
0	3584	1136.69847793237	0
0	3589	1137.256570518018	1
0	3590	1137.673454803651	1
0	3593	1138.395819938625	2
0	3607	1142.764704622562	2
0	3625	1148.021130886861	2
0	3642	1153.565766594141	1
0	3645	1154.821075357613	1
0	3662	1159.105154978345	3
0	3663	1159.189880031282	1
0	3678	1162.93117946724	0
0	3686	1164.483223350487	1
0	3694	1166.367849959877	0
0	3698	1167.228390601116	0
0	3701	1167.818748532914	2
0	3708	1169.689122674289	3
0	3710	1170.609876265054	2
0	3719	1175.043119476876	1
0	3723	1176.241843428117	1
0	3729	1178.307304357529	0
0	3734	1180.282984787137	0
0	3738	1180.800985734212	1
0	3749	1186.12210574071	2
0	3759	1191.129757848802	3
0	3771	1196.91676740558	2
0	3783	1202.285431267229	3
0	3796	1207.575625808678	4
0	3797	1207.712318419597	2
0	3799	1207.799174241607	3
0	3810	1212.656692208258	1
0	3814	1214.588509162308	0
0	3825	1218.480055160356	4
0	3826	1218.814976865078	1
0	3839	1224.188583484154	2
0	3849	1230.16786565236	1
0	3868	1235.932084898699	1
0	3869	1236.059822674962	3
0	3887	1241.41185103322	1
0	3891	1241.764235064389	2
0	3903	1246.012486373542	0
0	3911	1247.23692677403	2
0	3917	1249.454301739464	1
0	3921	1250.155454646684	2
0	3930	1252.568608411589	3
0	3946	1258.527796159034	1
0	3951	1260.123095924736	0
0	3954	1260.777431831464	0
0	3963	1263.710715300405	4
0	3967	1265.830736087522	3
0	3974	1268.925132719569	1
0	3978	1270.777651497165	1
0	3980	1271.231580352413	2
0	3989	1274.436616959518	3
0	4010	1280.321740752088	4
0	4019	1283.829394222239	0
0	4027	1286.03799926257	1
0	4038	1289.866558442358	3
0	4044	1291.52776563843	4
0	4061	1296.956521845192	1
0	4064	1297.992472154324	0
0	4077	1302.459188502517	2
0	4083	1304.369623844864	0
0	4085	1305.615721291167	1
0	4093	1307.914095656017	5
0	4104	1313.573665287115	6
0	4116	1318.867515995169	7
0	4127	1324.074668257033	2
0	4129	1324.957793669544	6
0	4140	1329.829984266545	3
0	4145	1332.624022280451	2
0	4152	1335.057953828714	7
0	4163	1340.771511518863	1
0	4175	1346.010268983898	6
0	4179	1346.010821334786	1
0	4180	1346.155885011892	1
0	4185	1347.479366402259	5
0	4196	1350.489773914219	0
0	4203	1351.584726893344	1
0	4208	1353.309567142048	0
0	4221	1356.847019148991	2
0	4230	1360.226866287063	4
0	4243	1362.693504697411	3
0	4254	1367.481982909378	0
0	4256	1367.738367514222	2
0	4260	1368.329339371529	1
0	4270	1372.887168220944	0
0	4276	1373.54804097605	1
0	4290	1379.09790267842	5
0	4292	1379.716959225131	4
0	4309	1384.997066084064	5
0	4318	1388.55130305933	4
0	4326	1390.675496571233	2
0	4327	1390.681531072012	1
0	4336	1393.68494636857	1
0	4345	1396.076856393834	2
0	4350	1398.259791127756	1
0	4359	1401.511432907663	3
0	4365	1401.772369911663	2
0	4368	1403.44846506638	1
0	4379	1406.924414279174	1
0	4399	1412.538989576047	4
0	4408	1415.254788282796	3
0	4422	1418.52626713738	4
0	4425	1419.368003512154	0
0	4432	1421.621957328174	3
0	4441	1423.930850579405	2
0	4446	1426.17375312187	1
0	4450	1427.531090481441	0
0	4456	1429.290326807882	1
0	4464	1432.244498492686	0
0	4471	1435.083791605664	1
0	4476	1437.56962767593	2
0	4485	1440.121649357725	3
0	4495	1443.317353079563	0
0	4504	1445.811607498212	4
0	4515	1450.887165721741	2
0	4528	1456.635659578957	3
0	4534	1460.403453480338	3
0	4536	1460.521383032205	2
0	4542	1462.043005911403	4
0	4547	1463.562319593856	1
0	4556	1467.307361801157	1
0	4570	1472.727455973627	2
0	4573	1473.487015305671	3
0	4586	1478.448567389047	3
0	4587	1478.485695776765	2
0	4605	1483.514823092848	4
0	4618	1488.983738016805	1
0	4620	1489.544277483018	0
0	4635	1494.097098950299	1
0	4642	1496.668800678106	1
0	4646	1497.010089619206	3
0	4656	1499.236191475533	2
0	4670	1503.454947241583	0
0	4672	1503.536695183144	2
0	4676	1504.619763498662	3
0	4689	1509.158811022645	2
0	4694	1510.123876541156	3
0	4697	1510.553216122674	0
0	4712	1515.943790956868	4
0	4720	1521.807697575194	3
0	4724	1521.898145429559	4
0	4736	1527.460581068417	1
0	4737	1527.523725877285	1
0	4742	1528.301715471203	3
0	4754	1532.80426456826	4
0	4769	1538.323992831169	2
0	4783	1543.665264068174	2
0	4794	1548.342605172659	1
0	4799	1548.685007549592	1
0	4812	1552.559556300173	1
0	4821	1554.130109255205	5
0	4823	1554.696843305606	4
0	4835	1558.207836117133	0
0	4842	1559.281769710363	5
0	4845	1560.355330324502	0
0	4853	1563.045387184366	0
0	4859	1564.540816525932	1
0	4868	1569.90901122196	1
0	4885	1575.829541474351	6
0	4890	1578.204175412775	0
0	4893	1579.451295653129	5
0	4899	1581.349647464234	1
0	4906	1583.981093331127	0
0	4914	1586.450043799825	6
0	4924	1591.755795712586	1
0	4925	1591.806814676505	5
0	4940	1597.460304457232	2
0	4951	1601.870561970868	4
0	4957	1602.882386516783	2
0	4969	1608.080464609086	1
0	4973	1608.756898666968	3
0	4984	1612.727688617426	2
0	4990	1614.627177716934	5
0	5008	1620.175814971796	6
0	5019	1624.176228212895	1
0	5021	1625.082691491584	0
0	5025	1625.210182542217	1
0	5032	1628.141163188152	5
0	5036	1629.732970522255	0
0	5042	1630.829432824397	1
0	5055	1635.934396727945	2
0	5070	1641.278717980723	2
0	5074	1642.338741044749	4
0	5082	1645.558192069063	1
0	5088	1646.546073689594	1
0	5089	1647.158886035209	0
0	5104	1651.934966673612	1
0	5116	1655.329012052976	1
0	5126	1657.407341664194	2
0	5129	1658.121601798926	0
0	5144	1662.735543092715	2
0	5153	1666.671626894622	1
0	5160	1668.546847697582	5
0	5162	1668.678302356158	4
0	5166	1670.444979977565	0
0	5176	1673.662487332478	3
0	5183	1678.20984392532	2
0	5189	1679.434379826302	3
0	5192	1680.810057368246	3
0	5202	1685.316929345953	4
0	5206	1687.898357455269	2
0	5214	1690.353384427263	1
0	5227	1695.409970961514	2
0	5243	1701.095275361559	3
0	5259	1707.080603284531	5
0	5267	1710.387605503321	4
0	5275	1712.085668257673	1
0	5294	1717.621876188789	2
0	5295	1717.935143316281	2
0	5298	1718.279219572668	1
0	5311	1722.030909573312	1
0	5319	1723.253283630128	2
0	5323	1724.59946082975	0
0	5334	1728.567811785038	3
0	5338	1728.915283423386	3
0	5351	1733.865609792065	1
0	5357	1734.125491986287	2
0	5359	1734.687226492684	2
0	5373	1739.708263485928	1
0	5383	1742.590603063819	1
0	5390	1744.920873731961	1
0	5394	1745.013007317672	2
0	5413	1750.226954661545	4
0	5414	1750.323581781706	3
0	5422	1753.677582743812	2
0	5431	1755.474752677374	3
0	5432	1755.543360062646	0
0	5436	1756.668764541509	2
0	5442	1758.799127735552	0
0	5448	1760.539582224099	3
0	5460	1765.688439404361	1
0	5466	1768.289202464515	1
0	5478	1771.577007821996	1
0	5499	1777.526767491365	2
0	5502	1778.374626761536	1
0	5505	1778.469912002099	2
0	5525	1783.138459320415	2
0	5546	1788.911033793122	3
0	5560	1793.405064564902	0
0	5566	1794.539542893416	1
0	5579	1798.382903209077	2
0	5587	1799.968571991197	2
0	5594	1801.463882345123	1
0	5603	1803.892662772908	1
0	5614	1805.892346158859	2
0	5620	1807.388320135424	1
0	5639	1811.374161473012	3
0	5643	1812.336604172948	0
0	5649	1813.822746749507	0
0	5651	1814.949243353329	0
0	5657	1817.008365050426	1
0	5662	1819.757262906761	0
0	5664	1820.889202826423	2
0	5669	1822.772426418729	1
0	5675	1826.148636955534	1
0	5682	1827.983014974978	1
0	5696	1833.56649222132	2
0	5701	1835.348471470645	0
0	5713	1838.942352746615	1
0	5723	1843.521578607847	0
0	5728	1844.413231687156	1
0	5733	1847.183338090199	1
0	5743	1849.85782820196	1
0	5761	1855.048451818993	2
0	5764	1855.500119697885	1
0	5785	1861.008881545394	2
0	5786	1861.022067974907	0
0	5791	1862.425159428851	1
0	5795	1863.274376032293	0
0	5803	1866.418984883699	1
0	5820	1872.235539709685	2
0	5821	1872.278899526691	0
0	5832	1877.672900651117	3
0	5839	1880.955185451312	0
0	5845	1882.969516093145	1
0	5856	1888.78381948406	1
0	5868	1893.624090314261	2
0	5872	1893.865782423179	1
0	5893	1899.256350900281	2
0	5896	1900.060308709509	1
0	5906	1902.815429124168	0
0	5908	1902.831312092837	0
0	5913	1904.554009449203	1
0	5917	1904.661014547108	1
0	5922	1907.615382026766	0
0	5930	1910.05971705937	2
0	5941	1915.31584268762	3
0	5948	1919.05990332598	2
0	5954	1920.615437078525	3
0	5955	1920.99835754384	0
0	5964	1926.197976064172	4
0	5972	1931.782594696155	1
0	5977	1935.647152705585	3
0	5979	1936.356752625785	0
0	5983	1936.868484913606	1
0	5995	1942.641567304965	4
0	5998	1944.559408206494	0
0	6004	1947.809530181579	5
0	6010	1953.120419806104	1
0	6011	1953.159044621631	4
0	6024	1958.663671714255	5
0	6035	1964.408306712984	6
0	6040	1967.23827500397	0
0	6046	1970.255075531314	1
0	6058	1975.743913217914	1
0	6070	1980.903743962991	1
0	6074	1982.57887079474	5
0	6087	1985.960549063981	2
0	6091	1986.807788114533	4
0	6094	1987.199486881845	1
0	6102	1988.88174078928	0
0	6108	1990.251989420039	0
0	6113	1991.293285636232	1
0	6117	1993.069435071784	0
0	6127	1996.999698359986	5
0	6133	1999.242524019679	4
0	6141	2002.309790781933	5
0	6151	2007.96117898659	6
0	6160	2013.21500151081	5
0	6164	2013.441931160168	1
0	6165	2014.077950617068	0
0	6178	2018.775024069474	1
0	6185	2020.833137242479	4
0	6196	2024.210953197909	2
0	6210	2029.462112978801	1
0	6214	2029.593565603952	5
0	6216	2030.647346376673	0
0	6226	2034.915478245123	1
0	6234	2038.01766687283	4
0	6236	2038.225214202541	0
0	6244	2040.803791500861	5
0	6258	2046.434100738028	1
0	6273	2051.759856087621	1
0	6294	2056.762832344277	2
0	6297	2057.669098466986	0
0	6306	2060.328480248461	4
0	6314	2062.265953850001	3
0	6332	2067.576778610004	5
0	6347	2073.06558682397	6
0	6348	2073.077844129294	0
0	6354	2075.531547761296	5
0	6357	2076.95620200853	2
0	6364	2078.891056254506	1
0	6380	2084.205669657793	3
0	6381	2084.476520103409	4
0	6397	2089.738945660181	4
0	6405	2092.200511818525	3
0	6416	2095.714597076876	1
0	6427	2099.398727955064	0
0	6434	2100.73762881849	1
0	6440	2102.695757403158	3
0	6446	2104.559815032996	2
0	6454	2106.158224789892	2
0	6473	2111.231790984516	3
0	6497	2117.051952002105	4
0	6508	2120.284702498117	0
0	6519	2122.906227865024	1
0	6532	2127.189124598169	2
0	6539	2128.143663091586	3
0	6542	2128.373237009625	1
0	6544	2128.824815294128	3
0	6561	2134.104259584566	4
0	6564	2134.598060934456	3
0	6572	2136.64301599551	2
0	6584	2139.444308703068	2
0	6605	2144.985106456793	2
0	6626	2150.666377478047	3
0	6628	2151.078566697544	2
0	6634	2152.416752328284	1
0	6640	2154.468590798672	2
0	6650	2156.660225093133	2
0	6663	2159.980339656475	1
0	6675	2162.325610878646	3
0	6695	2167.745631045663	2
0	6710	2173.239325719539	1
0	6715	2173.415562642507	3
0	6725	2177.31222604448	2
0	6728	2178.074178514189	0
0	6737	2179.408039900942	4
0	6740	2180.489532308651	1
0	6754	2185.306052100614	3
0	6758	2186.813742355684	3
0	6765	2189.027822815464	2
0	6773	2190.808425147554	3
0	6783	2194.85959822988	2
0	6788	2195.80929842801	1
0	6796	2198.474615544194	0
0	6807	2201.152032376734	3
0	6822	2206.18426635652	4
0	6828	2208.877466018078	2
0	6831	2209.436333992054	0
0	6838	2211.202289649985	1
0	6847	2215.130367539706	1
0	6856	2216.998101276114	5
0	6865	2220.647240477739	4
0	6872	2222.276035023156	2
0	6887	2227.714291318554	2
0	6902	2232.887675861829	3
0	6913	2237.742527333204	2
0	6919	2238.640162244207	1
0	6938	2243.791032387876	5
0	6939	2243.815575248098	1
0	6941	2244.413553678555	4
0	6960	2249.090735575651	5
0	6970	2252.48747747927	0
0	6980	2254.735060099048	1
0	6992	2258.305625162901	1
0	7000	2259.878933775007	6
0	7013	2263.973724561752	5
0	7022	2265.357597950381	2
0	7035	2270.093157603531	4
0	7040	2270.880863105646	2
0	7042	2271.215278371821	0
0	7059	2276.401871976443	3
0	7066	2278.831030705359	1
0	7078	2282.328879565932	1
0	7086	2285.125712779704	2
0	7092	2286.879038570104	1
0	7099	2287.675290682353	2
0	7105	2289.741514667296	3
0	7114	2292.256041822954	0
0	7120	2293.07121657324	4
0	7134	2298.663613734999	2
0	7150	2304.417415654985	5
0	7152	2305.005472951225	1
0	7163	2309.545815810559	1
0	7167	2309.802705052774	6
0	7172	2311.907409147368	5
0	7183	2314.83504179446	2
0	7201	2320.679796680575	2
0	7213	2325.793102395721	3
0	7230	2331.036757312017	6
0	7234	2332.290686174883	2
0	7247	2336.95392014226	3
0	7261	2341.905544545266	2
0	7266	2342.510248234962	7
0	7273	2344.923332012151	6
0	7285	2348.480704441435	3
0	7292	2351.862638113319	1
0	7300	2353.589697085089	7
0	7315	2359.164240607527	4
0	7331	2364.538963699947	2
0	7336	2366.711031553576	3
0	7346	2369.967173947488	4
0	7356	2373.228073252954	6
0	7364	2375.888754388551	5
0	7380	2381.807006197284	3
0	7383	2383.190005113953	2
0	7399	2387.521868187935	6
0	7413	2393.332267027582	3
0	7426	2398.333148187493	7
0	7429	2399.386371262264	5
0	7435	2401.484520658276	6
0	7437	2401.856253881357	2
0	7449	2403.984262829647	1
0	7461	2408.319560561918	5
0	7467	2409.183590268018	6
0	7468	2409.228816893185	0
0	7487	2414.822592414217	6
0	7488	2414.922409001514	5
0	7501	2419.971185068367	3
0	7510	2423.271433406283	5
0	7519	2425.758403232088	6
0	7531	2430.083882094362	2
0	7537	2431.175514684058	1
0	7545	2433.801694906557	5
0	7560	2436.958713639294	2
0	7562	2438.017248233548	1
0	7570	2440.134386820028	4
0	7573	2440.861532134004	1
0	7581	2442.5964855419	5
0	7601	2448.372210280736	6
0	7607	2449.981673600735	0
0	7613	2451.55751094968	5
0	7615	2451.815346495482	0
0	7623	2454.085872160736	1
0	7639	2459.203223312506	6
0	7640	2459.359308573194	5
0	7653	2464.380151196626	4
0	7658	2465.127245290903	5
0	7664	2467.072716700028	0
0	7666	2467.168813293458	4
0	7674	2470.254554823041	5
0	7686	2475.712515790947	6
0	7699	2481.432873042533	7
0	7700	2481.77096307954	6
0	7711	2487.106874189339	7
0	7721	2492.300004570977	6
0	7728	2497.288233107429	5
0	7732	2497.519705592188	8
0	7743	2503.500646413769	1
0	7752	2507.446223040344	0
0	7758	2509.017322700703	9
0	7767	2512.824505648937	8
0	7773	2514.693149045575	1
0	7785	2519.441363596482	4
0	7788	2520.304350488237	0
0	7792	2520.542297607753	1
0	7807	2526.350841111503	2
0	7810	2527.557667197435	3
0	7818	2531.069207605323	1
0	7825	2532.31931557483	9
0	7841	2537.856724487384	1
0	7846	2538.750085657126	8
0	7853	2541.617875942493	0
0	7863	2543.658618844113	4
0	7871	2546.577930338805	3
0	7879	2549.11238744785	1
0	7897	2553.855026124859	0
0	7901	2554.306648093973	2
0	7906	2556.277627283952	7
0	7917	2559.409052263013	8
0	7922	2561.938694767303	1
0	7924	2562.045335162787	2
0	7934	2565.149986459873	1
0	7955	2570.992057523922	2
0	7961	2572.740517669713	1
0	7972	2575.87531408516	1
0	7979	2576.949681500438	2
0	7985	2578.333654899156	1
0	7999	2582.241100543411	2
0	8013	2585.75713839127	7
0	8022	2587.566745463293	2
0	8042	2592.857337752124	3
0	8044	2593.199928368673	0
0	8057	2597.746097135819	1
0	8063	2598.260221096687	8
0	8077	2604.172828010051	1
0	8082	2605.345434069176	2
0	8097	2609.690438793274	9
0	8105	2612.26138725679	0
0	8107	2612.320545441366	8
0	8116	2615.232206399786	1
0	8136	2620.357663310599	2
0	8137	2621.034250604348	7
0	8158	2626.028545751237	8
0	8165	2627.947758848077	1
0	8169	2628.636102973491	1
0	8177	2631.087474983885	9
0	8190	2635.121341425354	8
0	8198	2636.323201661465	9
0	8202	2637.2123673741	0
0	8217	2642.317327086349	2
0	8234	2647.861932960107	1
0	8243	2650.582060645684	0
0	8251	2653.053139399732	0
0	8255	2653.253019100056	3
0	8262	2657.99767904648	2
0	8266	2658.339661299485	3
0	8267	2658.506476182619	8
0	8278	2663.709277597257	4
0	8290	2669.503785831156	1
0	8302	2673.957355126281	3
0	8309	2674.989020590904	4
0	8316	2677.174364403366	7
0	8326	2680.338684496005	2
0	8327	2680.624926468248	3
0	8344	2685.947942924454	3
0	8359	2691.402511194117	4
0	8363	2692.662826403865	3
0	8374	2696.525535291413	2
0	8378	2696.529924319593	4
0	8384	2699.273781513566	1
0	8389	2700.720839300082	3
0	8395	2701.902363966919	4
0	8397	2702.627270735345	6
0	8411	2707.006172748051	2
0	8427	2712.764971399914	7
0	8445	2718.383193678922	3
0	8462	2724.347669500393	1
0	8464	2724.62967145199	2
0	8473	2727.034450638933	6
0	8475	2727.054180071463	3
0	8486	2729.711130006938	7
0	8503	2735.204487910029	3
0	8509	2736.684832134526	6
0	8526	2740.759671144188	2
0	8547	2746.707821747521	4
0	8551	2747.709924802309	5
0	8569	2752.014238777803	5
0	8576	2753.664523743911	1
0	8578	2753.757335593347	4
0	8592	2757.365091873333	5
0	8604	2761.079274761845	2
0	8607	2761.833498245695	4
0	8614	2763.049718264723	6
0	8618	2763.826947683472	0
0	8628	2768.18884929596	1
0	8632	2768.200694166357	7
0	8640	2771.535818251436	6
0	8645	2772.334411404449	0
0	8650	2773.276311468333	1
0	8668	2779.157627692213	1
0	8673	2780.905850848183	0
0	8678	2782.53645088291	5
0	8689	2784.983335443306	1
0	8695	2787.300712578001	4
0	8703	2789.578470986569	0
0	8705	2789.611475699932	3
0	8711	2790.95262574451	5
0	8716	2792.783091155122	4
0	8730	2796.804309729952	1
0	8751	2802.717701366869	2
0	8759	2804.938955959747	0
0	8766	2807.669616217036	3
0	8768	2807.937670415268	2
0	8773	2808.463931014295	3
0	8787	2813.601568768732	3
0	8803	2818.875099969329	4
0	8807	2819.49603291857	2
0	8822	2824.584351857891	5
0	8832	2829.223363394266	1
0	8834	2829.228280869195	2
0	8840	2830.295813919976	6
0	8851	2834.950174585576	5
0	8856	2835.475820421707	3
0	8859	2837.096273271599	0
0	8869	2841.45419973624	6
0	8876	2845.233861859547	5
0	8882	2847.379911337747	6
0	8889	2851.19156212837	2
0	8895	2852.417981293519	7
0	8900	2854.922280691573	6
0	8906	2857.968654620695	1
0	8923	2863.934845106444	3
0	8938	2869.133808495245	7
0	8943	2871.033453402692	2
0	8954	2874.138284795686	2
0	8959	2876.374706644225	6
0	8963	2877.835757531344	1
0	8971	2879.367306171452	1
0	8991	2884.877628058196	3
0	9010	2890.57115345099	2
0	9014	2890.596101090546	3
0	9015	2890.934051674327	0
0	9031	2896.481251789025	1
0	9036	2898.117741431233	5
0	9040	2899.096158365137	0
0	9046	2899.994570918737	4
0	9054	2901.785683159717	2
0	9059	2904.204304244837	1
0	9063	2905.321692080588	0
0	9070	2906.869253910613	1
0	9086	2912.072905573995	5
0	9091	2913.853270564227	2
0	9097	2915.894473932339	4
0	9105	2917.454548961717	2
0	9108	2918.149779705914	1
0	9110	2918.283767189602	3
0	9121	2922.773991242982	1
0	9125	2923.08129360201	2
0	9139	2928.297325061403	3
0	9153	2933.535442152062	1
0	9168	2938.400151913755	2
0	9172	2938.595064006514	2
0	9181	2940.48651437974	2
0	9197	2944.016245700187	3
0	9201	2945.369785931312	1
0	9217	2949.297848481919	2
0	9233	2954.247131985961	0
0	9238	2954.319455727238	3
0	9245	2957.64833203517	1
0	9249	2958.914953419012	2
0	9255	2960.071596868804	4
0	9257	2960.844139564903	1
0	9270	2965.331695495175	2
0	9276	2968.705566442574	3
0	9278	2968.750746773212	0
0	9284	2970.847770075548	3
0	9296	2976.463767311072	4
0	9308	2982.243980873844	4
0	9311	2983.307846970275	3
0	9321	2988.094361428407	3
0	9325	2988.176610725934	1
0	9328	2990.002928731617	2
0	9343	2993.968362789836	3
0	9360	2999.409018015025	4
0	9364	3001.989228501569	0
0	9366	3002.22136187577	3
0	9374	3004.654286472129	1
0	9389	3009.803626331037	4
0	9403	3015.223902020605	2
0	9418	3019.956658635292	3
0	9423	3020.580427553739	4
0	9425	3021.510567425521	2
0	9435	3024.650753718571	1
0	9443	3026.314466836631	3
0	9450	3029.613091262412	3
0	9459	3031.427589638859	1
0	9462	3032.761941965906	0
0	9477	3037.37556478521	4
0	9482	3039.0239696852	3
0	9493	3042.449141205523	4
0	9497	3044.465451151836	3
0	9509	3048.110828302802	4
0	9518	3052.069006487964	3
0	9525	3053.681923817146	2