version 3
run General-18-20240428-16:41:49-11318
attr configname General
attr datetime 20240428-16:41:49
attr datetimef 20240428-164149
attr experiment General
attr inifile omnetpp.ini
attr iterationvars $0=false
attr iterationvarsd false
attr iterationvarsf false-
attr measurement $0=false
attr network Supermarket
attr processid 11318
attr repetition 8
attr replication #8
attr resultdir results
attr runnumber 18
attr seedset 8
config network Supermarket
config repeat 10
config seed-set 8
config num-rngs 10
config **.use_random_strategy false

vector 0 Supermarket queueSizeOverTime:vector ETV
attr recordingmode vector
attr source updateQueue
attr title queueSizeOverTime
vector 1 Supermarket customerWaitingTime:vector ETV
attr interpolationmode none
attr recordingmode vector
attr source customerFinished
attr title "cust waiting time"
0	7	5.521915714955	1
0	14	11.051358074416	1
0	20	15.484542106161	0
0	25	16.736508277478	1
0	36	22.041194577003	1
0	51	27.903086195234	1
0	61	31.237173283006	0
0	70	33.3207961109	1
0	90	38.353144190041	2
0	99	41.386561890714	0
0	109	43.429931363323	1
0	113	44.285752497845	0
0	128	49.312586921499	1
0	136	51.835913857564	0
0	143	54.416109677169	0
0	147	54.514250194886	1
0	152	56.235066539958	1
0	163	59.920326554681	1
0	173	62.962515275109	0
0	177	64.723908206098	0
0	182	65.510309597942	1
0	196	70.670624978141	1
0	216	76.437138969311	2
0	222	77.954611980474	1
0	230	79.983647863033	0
0	233	80.526579253141	0
0	240	82.209330313839	1
0	242	82.838526471866	0
0	255	87.758206186118	1
0	272	93.635460482678	1
0	283	97.030950878511	0
0	285	97.134721995681	0
0	293	99.152820547112	1
0	298	102.168609684798	0
0	307	104.275738872356	1
0	316	108.418178497929	0
0	321	109.88948784792	1
0	337	115.104972397211	1
0	345	117.815337251057	0
0	348	118.450232571456	0
0	356	121.080577136484	1
0	362	123.338358024718	0
0	372	126.414662161144	1
0	376	128.624800184275	0
0	380	129.699674561039	0
0	386	131.526881335304	1
0	399	136.527706737398	1
0	417	142.486375031062	1
0	430	146.582655183388	0
0	437	147.982835872099	1
0	439	148.528005541885	0
0	441	148.766598614166	0
0	452	153.582410367672	1
0	460	157.502734125476	0
0	468	158.768809067552	1
0	477	162.292894455721	0
0	485	164.581083680038	1
0	501	170.066948508612	1
0	514	175.166784768808	0
0	521	176.055814050372	1
0	541	181.373682836537	2
0	546	182.469993753706	0
0	548	183.427433366772	1
0	559	186.927778154379	1
0	561	187.186596825604	0
0	568	189.79862352158	0
0	576	192.51685682009	1
0	589	197.697400075617	1
0	609	203.487014921383	2
0	621	207.519538932365	0
0	629	209.107243011474	1
0	649	214.577016174794	2
0	651	214.92141267669	0
0	655	215.860945454683	1
0	657	216.054633308669	1
0	671	220.347159523285	1
0	676	222.198661627365	0
0	688	225.666588795605	1
0	700	229.136225137977	0
0	705	230.582177928766	0
0	709	231.315276912182	1
0	723	236.451731795912	1
0	744	242.235056751409	2
0	760	247.012389364071	0
0	767	248.182242250537	1
0	776	250.741155017867	0
0	782	252.704773866221	1
0	787	253.50866965158	1
0	793	254.932545952967	0
0	804	258.824732285227	1
0	827	264.325457890519	2
0	831	265.325974854759	0
0	845	269.547582979781	1
0	849	270.535466167147	0
0	863	274.712256692817	1
0	870	276.668456182001	1
0	884	280.45803961903	0
0	888	280.491793154275	1
0	908	285.973376451528	2
0	927	291.176446098138	2
0	941	295.060187434664	0
0	946	297.005475931568	0
0	950	297.048393670937	1
0	956	300.22244736762	1
0	959	300.949351221673	1
0	966	302.956373690397	1
0	974	305.534026150012	0
0	976	305.713796709084	0
0	984	308.148693734549	1
0	1001	313.769133489348	1
0	1006	315.854596745806	0
0	1016	318.898941121764	1
0	1028	322.614127690907	0
0	1033	324.270965636593	0
0	1037	324.673303239282	1
0	1053	330.595084047878	1
0	1056	331.927376583221	0
0	1060	332.85609270353	0
0	1070	336.58941479237	1
0	1081	340.765684416985	0
0	1088	342.576048551828	1
0	1089	342.591697913949	0
0	1100	347.983288011982	1
0	1108	351.769551318722	0
0	1115	353.267547258877	1
0	1127	358.252291256447	0
0	1133	358.900796902834	1
0	1134	359.012311790024	0
0	1147	364.306371940535	1
0	1153	366.820697323304	0
0	1163	370.058513322149	1
0	1176	375.672356502156	0
0	1180	376.038825920087	1
0	1184	377.484717217391	0
0	1196	381.623339006913	1
0	1211	387.210992570504	1
0	1218	389.265894977496	0
0	1225	391.489093679588	0
0	1231	392.928247037114	1
0	1242	396.786677024445	0
0	1248	398.588227769829	1
0	1254	400.921577309843	0
0	1261	403.9056479116	1
0	1268	407.123578791512	0
0	1272	408.355713362342	0
0	1277	409.391138266775	1
0	1286	414.666861262874	1
0	1288	414.894609747691	0
0	1300	420.599720127651	1
0	1317	426.357236060084	1
0	1322	427.937635646437	0
0	1339	432.318041605645	1
0	1356	437.511034151076	2
0	1357	437.524900012537	0
0	1374	443.274867889939	0
0	1378	443.350473389963	1
0	1379	444.050526813955	0
0	1390	448.40661244374	1
0	1406	454.208196813476	1
0	1417	457.959151138089	1
0	1425	459.32171733212	2
0	1444	464.399676956239	2
0	1450	466.006628543837	0
0	1456	467.955602567179	1
0	1464	469.6091967891	1
0	1487	475.603726551405	2
0	1498	479.439041823617	1
0	1501	479.98897355737	0
0	1507	480.693952247503	1
0	1525	485.848893301098	2
0	1540	489.411611475751	0
0	1545	490.934653799867	1
0	1550	491.629264087651	1
0	1571	497.44402730046	2
0	1585	501.53672339744	0
0	1591	502.450084589191	1
0	1593	503.075961246274	1
0	1595	503.321309541005	1
0	1601	504.815049628497	0
0	1607	505.79951877019	0
0	1613	507.822894662621	1
0	1630	513.018689424966	1
0	1649	518.578601029704	2
0	1652	518.915648532685	1
0	1663	522.263937518701	0
0	1670	523.973528543024	1
0	1679	527.14288902609	0
0	1687	529.619229049424	1
0	1688	529.688485751863	0
0	1703	535.187778047288	1
0	1721	540.259042185733	2
0	1734	544.104616357016	0
0	1736	544.240078805365	0
0	1742	545.621412892595	1
0	1744	546.251983508004	1
0	1758	551.208822744668	1
0	1777	556.495470149212	2
0	1782	557.563834453935	1
0	1791	560.162170696424	0
0	1799	562.253970525463	1
0	1809	565.274704951213	0
0	1820	567.871661212531	1
0	1837	572.978833664677	2
0	1838	573.203091731296	0
0	1840	573.718876963716	1
0	1845	574.606273324115	0
0	1849	576.941334432574	0
0	1854	578.970387257871	1
0	1864	584.399722191741	1
0	1879	590.27590512601	1
0	1884	591.702409131922	0
0	1892	594.214878832809	0
0	1896	595.88801654277	0
0	1900	595.930154084929	1
0	1901	596.994520145587	0
0	1908	601.155564509335	1
0	1909	602.27759144013	0
0	1916	606.894896965244	1
0	1921	611.652702050753	0
0	1926	612.174959259343	1
0	1937	617.451710508673	1
0	1942	619.68248103501	0
0	1951	622.780107157773	1
0	1953	623.652491342162	0
0	1965	628.491477017061	1
0	1968	630.205210692368	0
0	1977	633.690165442883	1
0	1992	639.054541826949	1
0	1994	639.540432628596	0
0	2012	644.216630280719	1
0	2031	649.280638955303	2
0	2039	651.304195249457	0
0	2044	652.373504944265	1
0	2047	652.594833397427	0
0	2054	655.117417864038	1
0	2059	657.28163873067	0
0	2067	660.63410377037	1
0	2068	661.211002017373	0
0	2079	666.056098859061	1
0	2083	667.994098051803	0
0	2085	668.492152713709	0
0	2091	671.515134189979	1
0	2102	677.478904891995	1
0	2109	680.231761653909	0
0	2116	682.540363410258	1
0	2126	686.725736150754	0
0	2131	688.060191943779	1
0	2132	688.088278738436	0
0	2144	693.483990405689	1
0	2150	696.221388589711	0
0	2159	699.03070569807	1
0	2160	699.743173394472	0
0	2172	704.879914377819	1
0	2187	710.637505481023	1
0	2203	716.207807315283	0
0	2207	716.496330563681	1
0	2232	722.490482487952	2
0	2244	726.220121405324	0
0	2252	728.334039739802	1
0	2258	729.98371927161	1
0	2268	732.989723264475	0
0	2274	733.468500217193	1
0	2277	734.065099613858	0
0	2292	738.796511634954	1
0	2299	740.968149415684	0
0	2304	743.452411196081	0
0	2310	744.200856158512	1
0	2312	745.157261515621	0
0	2317	747.103674500833	0
0	2321	749.497371430395	0
0	2325	749.650738553146	1
0	2332	755.287827177441	1
0	2341	760.451310951498	1
0	2359	766.2305893451	1
0	2364	767.974238275785	0
0	2379	772.161660161105	1
0	2396	777.349000328456	2
0	2399	777.955473822076	0
0	2412	782.679408475527	1
0	2414	782.983053590868	1
0	2425	786.556588023439	0
0	2430	788.11262991675	0
0	2434	788.168610916476	1
0	2447	793.410232419734	0
0	2452	794.046915736518	1
0	2454	795.126120643925	0
0	2465	799.880912154916	1
0	2479	805.707983311036	1
0	2500	811.015535346701	2
0	2509	813.428810751536	0
0	2519	816.247735866581	1
0	2529	819.081604100534	0
0	2532	819.990934900364	1
0	2534	820.28143878293	0
0	2540	822.119373325727	1
0	2541	822.361495989498	0
0	2554	827.791369796733	1
0	2564	831.84799138224	0
0	2572	833.451501092177	1
0	2584	838.529872291609	0
0	2588	838.706560088556	1
0	2602	844.398087239826	1
0	2606	846.008124070825	0
0	2611	847.17910420266	0
0	2618	849.699568513084	1
0	2619	849.881977912274	0
0	2627	854.460083982094	0
0	2632	855.361473283732	1
0	2642	861.06378080859	1
0	2657	866.773085766241	1
0	2668	870.29874918703	0
0	2674	871.83250876982	1
0	2693	877.32248885755	0
0	2697	877.371012803868	1
0	2713	881.843196131408	0
0	2718	883.005710502623	1
0	2720	883.163924290103	0
0	2723	884.228229675094	0
0	2734	888.958637433129	1
0	2735	889.383144069233	0
0	2739	891.048274796575	0
0	2746	894.722650525395	1
0	2759	900.60424849787	1
0	2768	903.963724293516	0
0	2774	905.745142820293	1
0	2789	910.745337860893	1
0	2807	916.414135348286	2
0	2812	917.500302862729	1
0	2830	922.18896816671	2
0	2839	924.74603769323	0
0	2850	927.907554297709	1
0	2860	931.578351063541	0
0	2868	933.465375329136	1
0	2877	936.05069739034	0
0	2879	936.431295752062	1
0	2885	938.217783760046	0
0	2891	939.170380272904	1
0	2892	939.528968173082	0
0	2894	939.672013072066	0
0	2902	944.25279728626	1
0	2915	949.33913645032	1
0	2917	949.94598000427	0
0	2929	954.546052358115	1
0	2932	956.433634438553	0
0	2941	959.916744994467	1
0	2950	963.857632447501	0
0	2956	965.483460185818	1
0	2967	971.036651600154	0
0	2971	971.117417102215	1
0	2980	974.157206046862	0
0	2986	977.006899859059	1
0	3005	982.293251573342	1
0	3007	982.423470863609	0
0	3010	983.403625227514	0
0	3021	987.35346636735	1
0	3033	992.057325387491	0
0	3038	992.821350828513	1
0	3054	998.110278755661	1
0	3058	999.543983480312	0
0	3073	1004.015057578219	1
0	3074	1004.315544214103	0
0	3076	1004.540703196546	0
0	3087	1009.839271750653	0
0	3091	1009.867499259535	1
0	3095	1013.07530192868	0
0	3102	1015.62435614085	1
0	3106	1018.263480424184	0
0	3113	1021.570556289518	1
0	3124	1026.930141767954	1
0	3137	1031.980843279512	1
0	3157	1037.972721683561	2
0	3177	1043.333632508992	2
0	3178	1043.365164130812	0
0	3190	1047.136678612211	1
0	3193	1047.478489912581	1
0	3198	1048.992128611543	1
0	3208	1051.805005912317	0
0	3218	1054.011032026262	1
0	3238	1059.450779218926	2
0	3244	1061.832023452851	0
0	3254	1064.474102585576	1
0	3259	1064.671311805724	1
0	3279	1069.910413493636	2
0	3286	1072.081298007051	0
0	3295	1075.023055038533	0
0	3301	1075.897668777035	1
0	3314	1081.285843649415	1
0	3320	1083.399288716261	0
0	3327	1085.431444614429	0
0	3333	1086.940127512674	1
0	3335	1088.026365297032	1
0	3347	1091.962433781476	1
0	3358	1095.613168033073	0
0	3370	1097.755274818746	1
0	3389	1102.79167684517	2
0	3400	1105.866543496612	0
0	3406	1107.335168143038	0
0	3410	1108.192170802505	1
0	3428	1113.525842284785	1
0	3433	1115.601540800302	0
0	3435	1115.895434641397	1
0	3448	1119.370133067482	1
0	3467	1124.500718349592	2
0	3474	1126.148209588603	1
0	3492	1130.462421484525	2
0	3502	1134.013746379176	0
0	3504	1134.014906934695	0
0	3507	1135.201991627692	1
0	3511	1136.238495769911	1
0	3526	1141.949689487229	1
0	3532	1143.303801052275	0
0	3547	1147.387478197926	1
0	3553	1149.777947751455	0
0	3561	1152.417258969509	1
0	3575	1156.159344004001	0
0	3582	1157.770539261634	1
0	3601	1162.90870991163	2
0	3606	1164.317054936199	0
0	3618	1168.836947266246	1
0	3625	1171.099231649424	0
0	3627	1171.363440452726	1
0	3637	1174.349350802368	1
0	3638	1174.491720264428	0
0	3653	1179.478906124132	1
0	3656	1180.100146837415	0
0	3670	1184.589368265355	1
0	3680	1187.058289008797	0
0	3691	1190.21513870405	1
0	3693	1190.590160486056	0
0	3710	1195.961860138923	1
0	3726	1200.405090311426	0
0	3731	1201.052098512417	1
0	3749	1206.562562034931	2
0	3761	1209.844648638738	1
0	3773	1212.256000689929	2
0	3778	1213.615513384224	0
0	3793	1218.198622089577	1
0	3803	1221.171903409412	0
0	3806	1221.601397980936	0
0	3810	1223.734537412994	0
0	3814	1223.988726284587	1
0	3828	1229.81851193658	1
0	3833	1232.628211116534	0
0	3841	1235.032381389755	1
0	3842	1235.530755112646	1
0	3857	1240.096761885797	1
0	3874	1245.586249125422	2
0	3895	1250.642831931821	2
0	3910	1255.264523182297	1
0	3915	1255.784324573585	2
0	3918	1256.996394591406	1
0	3922	1257.888606863561	0
0	3930	1260.83962641016	0
0	3932	1261.571824254817	0
0	3937	1261.781240354757	1
0	3941	1264.624134150215	1
0	3949	1267.276760386069	1
0	3956	1270.035535102474	0
0	3965	1272.471794269046	1
0	3981	1278.305760276502	1
0	4003	1283.806179909267	2
0	4006	1285.059204773511	0
0	4016	1287.514629058423	1
0	4018	1287.692418421734	0
0	4024	1288.892478796885	1
0	4040	1294.223441194742	1
0	4051	1298.133081648034	0
0	4059	1299.765788449206	1
0	4081	1305.283104101427	2
0	4087	1307.3850252151	0
0	4101	1311.116332070667	1
0	4103	1311.591346427915	0
0	4111	1314.712424218304	1
0	4118	1316.603887787552	1
0	4138	1322.384819330878	2
0	4153	1326.583639321149	0
0	4160	1328.310977279439	1
0	4164	1329.538280277162	0
0	4178	1334.044662755679	1
0	4185	1336.361673716803	1
0	4197	1339.237375313181	2
0	4219	1344.529168132225	2
0	4223	1345.51302109612	1
0	4225	1345.987898781777	0
0	4232	1348.103026977739	0
0	4238	1349.642065892227	1
0	4246	1352.700289492377	1
0	4257	1355.480396241879	1
0	4273	1360.109202481106	0
0	4278	1360.523628330555	1
0	4283	1361.788153034168	0
0	4288	1362.945355345377	0
0	4295	1365.842863184864	1
0	4312	1371.287975818849	1
0	4321	1374.023605048538	0
0	4327	1375.104632015802	0
0	4332	1376.375861218198	1
0	4351	1382.314096899469	1
0	4352	1382.92901392083	0
0	4355	1383.594946609691	0
0	4368	1388.304092284756	1
0	4373	1390.876836908863	0
0	4381	1393.344414105172	1
0	4397	1399.344137432052	1
0	4400	1400.732711056358	0
0	4413	1404.820927297462	1
0	4415	1405.390114624634	0
0	4423	1407.718961237345	0
0	4430	1410.774186061461	1
0	4448	1416.616958854951	1
0	4460	1420.466442336327	0
0	4462	1421.661439345566	0
0	4468	1422.083301638251	1
0	4482	1427.158847655168	1
0	4499	1432.123763983485	0
0	4504	1432.218688884283	1
0	4507	1433.210556322474	0
0	4509	1433.415431073283	0
0	4519	1437.34186880174	1
0	4533	1442.578502916963	1
0	4537	1443.960939136214	0
0	4541	1444.856858211919	0
0	4547	1447.895727516266	0
0	4551	1448.3615669969	1
0	4563	1454.121524326969	1
0	4570	1457.456152858329	0
0	4577	1459.33973377943	1
0	4587	1463.132656825357	0
0	4595	1465.170637976378	1
0	4602	1468.270521773141	0
0	4605	1469.382683682488	0
0	4610	1470.179955348139	1
0	4619	1475.36455785809	1
0	4633	1480.752473673782	1
0	4652	1486.134912840788	2
0	4656	1487.30235940509	0
0	4669	1491.557240776018	1
0	4687	1496.783995261765	0
0	4692	1497.205088530899	1
0	4706	1500.430923235021	1
0	4709	1500.786134981199	0
0	4717	1502.58523361897	1
0	4729	1506.754896831695	0
0	4736	1508.138148273573	1
0	4745	1511.482855169101	0
0	4754	1513.941972905769	1
0	4770	1518.318692439584	0
0	4777	1519.042238302994	1
0	4791	1524.086685388697	0
0	4797	1524.697386208688	1
0	4808	1528.352365492027	0
0	4813	1529.591065880259	0
0	4818	1529.796220945659	1
0	4820	1531.276778850237	0
0	4830	1535.40665740962	1
0	4831	1535.678604139947	0
0	4843	1540.952745484885	1
0	4858	1546.113239575641	1
0	4879	1551.482721253529	2
0	4888	1554.227686648257	0
0	4900	1556.96433410188	1
0	4904	1558.105562301586	1
0	4910	1560.428168833256	0
0	4914	1561.471867978922	0
0	4917	1561.994392040882	0
0	4922	1562.869435866362	1
0	4925	1564.661146766388	0
0	4931	1568.366080996113	1
0	4943	1573.524750401031	1
0	4951	1576.871537864789	0
0	4959	1578.531886691924	1
0	4961	1579.760318004524	0
0	4969	1583.511323537908	0
0	4974	1584.434200908521	1
0	4985	1589.484218836061	1
0	4989	1591.008569141149	0
0	5000	1595.118030479874	1
0	5013	1600.334611375115	1
0	5033	1605.61654973705	2
0	5036	1605.801829111065	0
0	5038	1606.381110988788	1
0	5055	1611.173000145701	1
0	5067	1615.108014832015	0
0	5076	1616.562324569791	1
0	5079	1617.636441200387	0
0	5084	1619.214120383838	0
0	5091	1621.583657475652	1
0	5108	1627.060564598299	1
0	5110	1628.171173197915	0
0	5119	1630.696263693852	0
0	5126	1632.513729659372	1
0	5142	1637.754428546407	1
0	5164	1643.20187295973	2
0	5166	1643.788905860155	0
0	5169	1644.07676684961	1
0	5182	1648.829303834817	1
0	5185	1649.530567120992	0
0	5199	1653.897303429429	1
0	5214	1658.481276388161	0
0	5222	1659.809758644781	1
0	5230	1661.926507475319	0
0	5235	1663.6283865259	0
0	5238	1664.377003729107	0
0	5242	1665.118003853594	1
0	5253	1670.252377630674	1
0	5269	1675.871652100232	1
0	5274	1677.016131835988	0
0	5288	1681.064235861177	1
0	5301	1684.638778639954	0
0	5308	1686.123055766566	1
0	5309	1686.387854284607	0
0	5329	1692.011196784905	1
0	5330	1692.426598393473	0
0	5346	1697.062918528679	1
0	5360	1701.420235265743	0
0	5364	1702.164686130357	0
0	5368	1702.38200096972	1
0	5382	1707.540139309826	1
0	5387	1709.519704144095	0
0	5395	1712.518959644713	0
0	5401	1713.442943439583	1
0	5410	1717.160201031244	0
0	5415	1718.468530680981	1
0	5428	1724.203123182986	1
0	5449	1729.543119683625	2
0	5460	1732.678383832095	1
0	5470	1734.6281812333	2
0	5472	1734.923819786052	0
0	5489	1740.377937708279	1
0	5490	1740.840647637027	0
0	5510	1746.125071525803	1
0	5517	1748.547984424509	0
0	5528	1751.481260779077	1
0	5529	1751.95484406745	1
0	5546	1756.87782209599	2
0	5567	1762.621980071995	2
0	5579	1766.152910433706	0
0	5589	1768.189542778764	1
0	5607	1773.564628676042	2
0	5611	1774.347196243349	0
0	5619	1776.474179010135	1
0	5625	1778.29055120318	1
0	5630	1778.804787611818	1
0	5646	1783.648479402527	0
0	5652	1784.788758191509	1
0	5672	1790.068791820664	2
0	5675	1791.350446684746	0
0	5685	1794.773712772523	1
0	5688	1795.448375214	1
0	5693	1795.812245790377	1
0	5695	1796.352348903191	0
0	5711	1800.87341356766	1
0	5733	1806.345658659698	2
0	5738	1807.719556090069	0
0	5748	1810.282880903913	1
0	5755	1811.814667261434	1
0	5757	1812.251024082068	0
0	5771	1817.163460734876	0
0	5775	1817.343636047556	1
0	5780	1818.788651952515	0
0	5783	1820.715569709652	0
0	5789	1823.08731897431	1
0	5790	1824.01339626044	0
0	5799	1828.458376566875	1
0	5810	1834.114865343315	1
0	5817	1837.061146802497	0
0	5825	1839.986864516274	1
0	5835	1844.279793353863	0
0	5840	1845.696316333483	1
0	5842	1845.815501788627	0
0	5854	1851.429347039894	1
0	5871	1857.119472845685	1
0	5879	1859.889977743264	0
0	5883	1861.287151574851	0
0	5889	1862.438630566461	1
0	5905	1868.202388762724	1
0	5925	1873.697863403703	2
0	5943	1878.783040847857	2
0	5952	1880.937020474225	1
0	5964	1884.175235849567	2
0	5981	1889.8675991944	0
0	5985	1890.062591997668	1
0	5996	1893.278965579106	1
0	5998	1893.565000048833	0
0	6007	1895.175484225148	1
0	6016	1898.329562967521	1
0	6018	1898.374632681015	0
0	6021	1899.292674571503	0
0	6028	1901.064478630427	1
0	6043	1906.332585406949	1
0	6046	1907.111610466143	0
0	6060	1911.363024419167	1
0	6082	1916.899898275494	2
0	6098	1921.991593742272	0
0	6103	1922.515391848044	1
0	6124	1928.058990185376	2
0	6125	1928.204193745386	0
0	6133	1930.874658914389	0
0	6141	1933.105561640806	1
0	6156	1938.76702599902	1
0	6160	1940.6319654138	1
0	6166	1942.088349770166	1
0	6177	1944.689085424871	2
0	6184	1946.940573737135	0
0	6197	1950.303402579383	1
0	6199	1951.125845787924	0
0	6205	1952.738396166351	0
0	6214	1955.355520943173	1
0	6229	1960.383561865886	1
0	6244	1965.541707427119	0
0	6248	1965.665741794271	1
0	6261	1969.687530664021	1
0	6263	1969.744033004966	0
0	6266	1970.699161573655	0
0	6271	1971.431791859673	1
0	6272	1971.515850021963	0
0	6284	1976.688487320667	1
0	6300	1982.554685953649	0
0	6304	1982.58541669533	1
0	6317	1987.640211734682	1
0	6339	1993.43208735878	2
0	6348	1995.504355835259	1
0	6363	1999.399607479799	2
0	6378	2003.633026277405	0
0	6386	2005.22486172709	1
0	6388	2005.615458385081	0
0	6392	2006.229640040541	0
0	6397	2009.087560140177	1
0	6402	2010.708164210425	1
0	6419	2016.668041955673	1
0	6425	2018.956850530114	0
0	6430	2020.482260949787	0
0	6437	2022.565655583276	1
0	6452	2027.928244871546	1
0	6457	2029.925037354457	0
0	6466	2033.404790184918	0
0	6472	2033.926703138503	1
0	6478	2036.132971603766	0
0	6481	2036.667758754681	0
0	6486	2039.289159966859	1
0	6497	2044.74159983638	1
0	6505	2048.055930870927	0
0	6512	2050.458565560861	1
0	6528	2055.73379574436	1
0	6544	2060.384459832327	0
0	6549	2060.969934010406	1
0	6568	2066.047499381465	2
0	6574	2067.790756597292	0
0	6584	2071.131194417475	0
0	6588	2071.833805360359	1
0	6602	2076.846420264796	1
0	6620	2082.263605058303	0
0	6624	2082.270588630105	1
0	6645	2087.643222102423	2
0	6647	2087.958711416688	1
0	6665	2092.993504739825	2
0	6668	2093.864555774597	1
0	6686	2098.049648710287	2
0	6698	2101.06381333444	0
0	6706	2103.401189407561	0
0	6710	2103.711847136722	1
0	6722	2109.153720795986	0
0	6728	2109.536810433951	1
0	6736	2113.111574390315	1
0	6744	2115.052186622278	1
0	6764	2120.445074259064	2
0	6767	2120.737988897241	1
0	6789	2126.206676994211	2
0	6804	2129.645414341928	1
0	6814	2131.653058476507	2
0	6822	2133.925896789867	1
0	6829	2135.794425513824	1
0	6836	2137.415323124959	2
0	6845	2139.511252724439	0
0	6855	2142.744410656852	1
0	6862	2145.863117882974	0
0	6872	2148.226895998924	1
0	6881	2151.103849044759	1
0	6888	2152.714487186161	0
0	6894	2153.502614422695	1
0	6895	2154.03384493	0
0	6909	2158.663301937975	0
0	6915	2159.094967599719	1
0	6932	2164.793422060547	1
0	6950	2170.309576567024	2
0	6955	2171.797832857693	1
0	6969	2175.349334425753	2
0	6983	2180.279932473198	0
0	6988	2180.53340136655	1
0	7000	2184.278385258972	0
0	7009	2186.124064231751	1
0	7025	2191.588362262347	0
0	7029	2191.973634672578	1
0	7048	2197.504476625233	2
0	7054	2199.013718228665	1
0	7066	2202.415922591456	0
0	7072	2202.985632090124	1
0	7089	2208.075751554913	2
0	7093	2208.864426166511	1
0	7097	2209.932298878786	1
0	7103	2210.983056806138	0
0	7111	2213.442235188087	0
0	7115	2213.476746195222	1
0	7123	2216.250469546295	0
0	7132	2219.171988559414	1
0	7135	2220.37904952524	0
0	7145	2224.901383807177	1
0	7159	2230.039377230445	1
0	7181	2235.955538375529	2
0	7187	2238.582558717574	0
0	7197	2240.964587365503	1
0	7214	2246.145647580728	1
0	7218	2246.188316213891	2
0	7239	2251.444748237955	2
0	7243	2252.678282107801	1
0	7247	2253.129196593065	0
0	7255	2255.660839655546	1
0	7262	2256.951821719755	1
0	7266	2258.608806675408	0
0	7278	2262.115631666493	1
0	7295	2267.260040624293	2
0	7308	2270.217083225951	1
0	7320	2272.910759652026	2
0	7332	2277.187792584173	0
0	7340	2278.570641719962	1
0	7349	2281.313609254655	0
0	7358	2283.750887367169	1
0	7381	2289.690499387907	2
0	7388	2292.371093424029	0
0	7390	2292.512189805385	1
0	7398	2294.815794700517	1
0	7423	2300.771465372986	2
0	7432	2303.999777899467	1
0	7437	2305.576965644367	1
0	7442	2305.865533967496	2
0	7461	2311.361558996135	0
0	7466	2311.864668159274	1
0	7486	2317.691698434524	2
0	7506	2322.740948368789	0
0	7510	2322.825711291278	1
0	7515	2323.88895918044	1
0	7533	2328.794770075469	2
0	7540	2330.614695414895	0
0	7544	2331.539565327222	1
0	7552	2334.046890320484	1
0	7557	2335.189818020325	0
0	7570	2339.202909003938	1
0	7578	2341.289322418503	0
0	7588	2344.301803042408	1
0	7589	2344.386892227564	1
0	7604	2348.366349043785	0
0	7611	2349.458450470114	1
0	7624	2353.395451793439	0
0	7632	2355.268793455785	1
0	7633	2355.307626932736	0
0	7642	2358.597191853559	0
0	7648	2360.411453321803	1
0	7661	2365.891294516616	0
0	7666	2366.05942203686	1
0	7679	2371.086726021482	1
0	7700	2376.551067684073	2
0	7703	2377.169200564961	0
0	7721	2382.365514029976	1
0	7724	2383.628701102798	0
0	7738	2387.964713692892	1
0	7745	2390.382442449214	0
0	7752	2393.098731864939	1
0	7756	2393.191629164381	1
0	7773	2398.548138731852	2
0	7795	2404.467977599002	2
0	7809	2408.818802313875	0
0	7816	2409.53347050072	1
0	7822	2411.173668174532	1
0	7833	2414.087678010917	0
0	7839	2415.170900283375	1
0	7846	2416.955143728637	0
0	7858	2420.240028592405	1
0	7863	2420.748977215721	1
0	7879	2425.875770072679	2
0	7897	2431.068510752514	0
0	7902	2431.779398646898	1
0	7909	2434.273986669017	0
0	7919	2436.864924099057	1
0	7925	2438.016080433498	1
0	7932	2439.697439962759	0
0	7944	2442.857112569495	1
0	7955	2446.23560637328	0
0	7964	2448.764382919988	1
0	7985	2454.602506540476	2
0	7989	2456.013739015901	0
0	7996	2458.338982810028	1
0	8004	2460.182390186696	1
0	8023	2465.347972904791	2
0	8026	2466.709560843526	0
0	8040	2470.621915821212	1
0	8058	2476.266251087648	2
0	8070	2480.403887035438	1
0	8074	2480.715098976382	1
0	8080	2481.645588026841	2
0	8095	2487.157868539557	0
0	8101	2487.538286522955	1
0	8118	2492.863425255513	2
0	8124	2494.617766533272	1
0	8139	2497.995947929092	2
0	8144	2499.365974391575	1
0	8160	2503.355219878715	2
0	8174	2507.699442694774	0
0	8181	2509.124549724155	1
0	8182	2509.633922566073	0
0	8188	2511.30602992186	1
0	8199	2514.63768251356	1
0	8202	2514.86170415009	1
0	8207	2516.737120774336	0
0	8221	2520.40258428314	1
0	8228	2522.70136319461	0
0	8235	2524.139197955251	0
0	8242	2526.247917141991	1
0	8249	2528.052216090022	0
0	8258	2531.627846716197	1
0	8271	2536.126909691716	0
0	8273	2537.126081764579	0
0	8277	2537.247427641174	1
0	8287	2542.803085809101	1
0	8299	2547.223578227328	0
0	8307	2548.738438048859	1
0	8321	2554.163765671889	1
0	8334	2558.42406498512	0
0	8341	2559.474017122986	1
0	8351	2562.870581746793	0
0	8353	2563.327178634811	0
0	8361	2564.901616887648	1
0	8375	2570.510676257538	0
0	8379	2570.593008191318	1
0	8385	2572.977654982817	0
0	8395	2576.467997328837	1
0	8402	2579.164843892788	0
0	8411	2582.033207444933	1
0	8415	2583.448454763152	0
0	8427	2588.001150939374	1
0	8440	2593.476984857226	0
0	8444	2593.834796851494	1
0	8454	2598.286040593279	0
0	8459	2599.438695532496	1
0	8477	2605.235490162617	1
0	8482	2607.188423524954	0
0	8488	2609.735657537235	0
0	8494	2611.109599122305	1
0	8497	2611.821027320105	0
0	8509	2616.230785459273	1
0	8514	2618.260996650199	0
0	8517	2618.710397083422	0
0	8524	2621.695631989504	1
0	8536	2627.642518349684	1
0	8551	2632.711561496829	1
0	8570	2637.788264105902	0
0	8574	2637.931215965183	1
0	8593	2643.812573984492	2
0	8607	2647.449811905966	1
0	8615	2648.906223541352	2
0	8622	2650.651233947364	0
0	8624	2651.011846312316	0
0	8628	2652.394507030368	1
0	8636	2654.519708772882	1
0	8638	2655.145458487554	0
0	8648	2660.491368187585	1
0	8666	2666.273472182446	1
0	8683	2671.224616188666	0
0	8688	2671.58462191256	1
0	8697	2674.899248302211	0
0	8706	2676.645929216866	1
0	8723	2681.370914316963	0
0	8727	2681.809414568583	1
0	8746	2686.846984196214	2
0	8765	2692.25753500987	2
0	8766	2692.50568796554	1
0	8789	2697.748227660769	2
0	8791	2698.120233548333	0
0	8800	2701.19974544504	0
0	8806	2703.00030098389	1
0	8807	2703.183400114291	1
0	8824	2708.820253403151	1
0	8842	2714.529214282978	2
0	8845	2714.831556083864	1
0	8860	2719.128729573907	1
0	8867	2720.26076760119	2
0	8873	2722.003868327234	0
0	8876	2723.155428217597	0
0	8883	2725.378779272076	1
0	8889	2727.609343503361	0
0	8899	2731.366828529855	1
0	8916	2737.268148342838	1
0	8932	2742.384397513695	1
0	8938	2743.179993111399	2
0	8961	2749.092459975035	2
0	8972	2752.245734635383	1
0	8979	2754.244657643014	0
0	8985	2754.951737269984	1
0	8995	2757.814863063852	0
0	9004	2760.477152160596	1
0	9008	2760.667373514493	1
0	9029	2766.122832131797	2
0	9035	2767.946828225387	0
0	9050	2772.056705092072	1
0	9051	2772.140845598296	0
0	9069	2777.839300076236	1
0	9071	2778.431023465231	1
0	9081	2781.320353289828	0
0	9089	2783.245122026877	1
0	9109	2788.574671011177	2
0	9111	2788.987868232296	0
0	9122	2792.382497867445	1
0	9129	2794.381426519939	1
0	9135	2796.003691515994	0
0	9143	2798.859662984954	0
0	9147	2799.459786379469	1
0	9148	2799.553222659502	0
0	9156	2803.446949548778	0
0	9161	2804.570803239701	1
0	9170	2809.698946886222	1
0	9178	2813.292067796913	0
0	9184	2814.78072578855	1
0	9198	2819.831694804823	1
0	9214	2824.950925282661	0
0	9219	2825.815820047392	1
0	9233	2829.706771229853	0
0	9242	2831.597374671597	1
0	9248	2834.02223012351	0
0	9262	2837.183555268442	1
0	9271	2840.043400247689	0
0	9280	2842.186943011584	1
0	9292	2846.136877635602	0
0	9300	2847.448724888724	1
0	9302	2848.011208555537	0
0	9308	2850.051404144377	0
0	9319	2853.443667868378	1
0	9326	2856.109288636705	0
0	9334	2859.288815204978	1
0	9342	2862.939691464875	0
0	9349	2864.979160781942	1
0	9351	2865.837807563243	0
0	9361	2870.049561361076	1
0	9378	2875.977574423181	1
0	9398	2881.689540906103	2
0	9407	2884.384662464603	0
0	9411	2885.379006143536	1
0	9418	2886.841879905892	1
0	9430	2891.119364139731	0
0	9438	2892.50827662646	1
0	9449	2896.626720927301	0
0	9457	2898.053026955101	1
0	9466	2901.183234628049	0
0	9475	2903.546669557683	1
0	9489	2908.255412330728	0
0	9496	2909.421324618852	1
0	9497	2909.826189869308	0
0	9513	2915.375359691672	1
0	9514	2915.547858343337	0
0	9533	2921.309279077679	1
0	9540	2924.092722420689	0
0	9552	2926.880253642557	1
0	9560	2929.627118857451	0
0	9565	2931.41670833411	0
0	9568	2932.443439803311	0
0	9572	2932.615951838663	1
0	9577	2935.527918906642	0
0	9584	2938.015076347387	1
0	9593	2943.292547883924	0
0	9597	2943.942021487507	1
0	9608	2949.18375965766	1
0	9614	2951.895607060398	0
0	9623	2954.645369668019	1
0	9637	2959.882314638694	1
0	9656	2965.152860567899	2
0	9657	2965.218798633891	0
0	9667	2968.545819850631	1
0	9675	2970.773557701608	1
0	9695	2975.964972146548	2
0	9714	2981.39487541187	2
0	9720	2983.073642597995	0
0	9725	2984.37117152672	0
0	9734	2987.210926879425	1
0	9741	2989.74540358781	1
0	9743	2989.868105985685	1
0	9747	2991.395682815574	0
0	9752	2992.453897657101	1
0	9758	2995.290640035872	0
0	9769	2998.346088728397	1
0	9781	3003.842804746345	0
0	9786	3004.047249831487	1
0	9788	3005.292308048688	0
0	9800	3009.054426593002	1
0	9803	3010.510976437474	0
0	9812	3014.316387011198	1
0	9819	3017.276386217674	0
0	9825	3019.795845987968	1
0	9837	3024.406044455938	0
0	9843	3025.669682391913	1
0	9848	3028.005933571018	0
0	9858	3030.923177547979	1
0	9873	3036.087300287087	1
0	9874	3037.081274960417	0
0	9889	3041.626448636868	1
0	9906	3046.614601493691	0