version 3
run General-18-20240430-20:30:45-5506
attr configname General
attr datetime 20240430-20:30:45
attr datetimef 20240430-203045
attr experiment General
attr inifile omnetpp.ini
attr iterationvars $0=false
attr iterationvarsd false
attr iterationvarsf false-
attr measurement $0=false
attr network Supermarket
attr processid 5506
attr repetition 8
attr replication #8
attr resultdir results
attr runnumber 18
attr seedset 18
config network Supermarket
config repeat 10
config num-rngs 10
config **.use_random_strategy false

vector 0 Supermarket queueSizeOverTime:vector ETV
attr recordingmode vector
attr source updateQueue
attr title queueSizeOverTime
vector 1 Supermarket customerWaitingTime:vector ETV
attr interpolationmode none
attr recordingmode vector
attr source customerFinished
attr title "cust waiting time"
0	7	5.130553543568	1
0	13	11.092056279537	1
0	24	16.12857486005	1
0	43	21.73995033186	1
0	49	23.588642613266	0
0	59	27.411476437235	0
0	64	27.524338733871	1
0	67	28.781120296452	0
0	74	32.178739157274	0
0	78	33.430426602951	1
0	88	38.94631721161	0
0	92	39.073813642842	1
0	103	44.130544037792	1
0	117	49.912128765836	1
0	122	51.523821130512	0
0	132	54.232693517933	0
0	137	55.53619066463	1
0	152	60.893319728553	1
0	159	63.240189080477	0
0	161	63.2969677957	0
0	170	66.741763120053	1
0	184	72.005490046695	1
0	205	77.708759010539	2
0	209	79.132028302879	1
0	218	81.307364018868	0
0	221	82.183083367186	0
0	226	82.89437170001	1
0	242	88.0832529692	1
0	263	93.490938233214	2
0	271	95.874417856104	0
0	278	97.328833341137	1
0	285	98.735368176599	1
0	305	104.161631912694	2
0	327	109.947274730776	2
0	335	112.453846716209	0
0	342	114.636643180857	0
0	347	115.480354198257	1
0	349	116.578808389955	1
0	365	120.687642193867	1
0	381	125.085450039366	1
0	383	125.319816351638	0
0	390	126.483259072762	1
0	394	128.03850508528	0
0	408	131.989739095561	1
0	426	137.208713533358	2
0	436	140.267548567271	1
0	440	141.27295690717	0
0	447	142.463624302998	1
0	466	148.406405123651	2
0	485	154.074805400569	2
0	502	158.862326205825	1
0	507	159.134030576332	2
0	526	164.434047909569	0
0	531	164.802553440446	1
0	548	169.949439033402	2
0	551	170.636105132178	1
0	553	170.637439777493	1
0	572	175.786091625692	2
0	575	176.737469871995	1
0	588	180.634923638315	1
0	592	181.002789857799	2
0	614	186.366841616344	2
0	636	191.82433788432	2
0	642	193.126045699	1
0	647	194.668055029241	0
0	656	197.12364749133	1
0	660	197.24005379854	1
0	666	198.982702594372	1
0	682	203.014271423689	2
0	683	203.069196189173	0
0	702	208.946627988017	1
0	713	213.286836671879	0
0	720	214.39201317495	1
0	725	216.331624843416	0
0	728	216.492983408387	0
0	732	217.844153754765	0
0	738	220.110042002288	1
0	747	225.767188320172	1
0	749	227.039708868721	1
0	763	231.52591053909	1
0	766	232.082373459595	0
0	781	236.820147011432	1
0	793	241.36180649698	0
0	799	242.113007086099	1
0	817	247.162700892195	0
0	822	247.491176161219	1
0	826	248.617110858441	0
0	831	250.342123570272	0
0	836	252.875310346372	0
0	840	253.417559423021	1
0	850	258.456719663695	1
0	856	261.338718619549	0
0	863	263.649451815758	1
0	864	263.862997745865	0
0	875	268.902064226104	1
0	882	271.668505093203	0
0	892	274.879897260575	1
0	911	280.745054519505	1
0	920	283.760575148163	0
0	931	286.205811847702	1
0	950	291.569304142382	2
0	953	292.128892857817	0
0	957	293.822248682496	1
0	959	294.185273979328	0
0	967	297.006780168975	1
0	968	297.372811841546	0
0	982	302.085204444595	1
0	987	304.55723798473	0
0	996	307.750554492932	1
0	1002	310.328946893572	0
0	1007	312.421910917039	0
0	1011	312.874386960875	1
0	1016	315.441208269216	0
0	1023	318.716456852855	1
0	1027	322.04557065014	0
0	1033	324.165539421609	1
0	1037	326.835102829502	0
0	1042	329.741008087296	1
0	1054	335.278388918146	1
0	1055	335.290259962205	0
0	1068	341.140488791747	1
0	1082	346.157458043193	1
0	1099	350.907510589344	0
0	1103	351.50292071025	1
0	1108	352.705515760696	0
0	1117	354.977752066217	0
0	1123	356.86869718833	1
0	1141	362.722735788209	1
0	1161	368.471629486188	2
0	1162	369.066205142066	0
0	1169	371.011060913095	0
0	1173	373.05858031975	1
0	1179	374.190975624837	1
0	1194	379.252800350079	1
0	1199	380.637687709766	0
0	1206	383.600109775321	0
0	1214	385.01168341702	1
0	1228	390.837212231012	1
0	1242	395.402290316534	0
0	1247	395.904389262201	1
0	1260	399.528298103951	0
0	1267	401.792804756669	1
0	1272	403.261479352371	0
0	1284	407.011220645627	1
0	1295	410.006313121646	0
0	1304	412.606810430532	1
0	1305	412.749405960904	0
0	1315	416.45983480674	0
0	1317	416.984776956497	0
0	1322	418.4654686132	1
0	1323	418.978759035935	0
0	1330	424.047935979676	0
0	1334	424.322480279489	1
0	1340	429.888555566084	1
0	1352	435.356910671808	1
0	1367	440.627491289752	1
0	1368	440.898765181659	0
0	1384	445.798173334452	1
0	1401	450.410426497693	0
0	1407	451.253174061191	1
0	1418	455.093237026246	0
0	1425	456.924245012694	1
0	1448	462.686188676397	2
0	1458	465.717465486031	0
0	1462	466.926729959323	0
0	1466	468.388282003815	1
0	1470	468.467143822464	1
0	1480	472.979649756572	0
0	1485	473.519716024169	1
0	1492	476.815908537482	0
0	1495	477.480894736133	0
0	1500	478.702665355525	1
0	1501	479.168588893955	0
0	1509	484.479824053825	1
0	1518	489.426925881187	0
0	1523	490.322277953618	1
0	1528	494.214363881971	0
0	1530	494.372851684343	0
0	1534	495.925165144031	1
0	1539	500.991881936093	1
0	1550	506.713815232975	1
0	1566	512.537452556895	1
0	1586	517.621840244396	2
0	1599	520.931667462691	1
0	1603	522.310586351322	0
0	1610	522.899123870306	1
0	1625	527.964684990239	2
0	1635	530.628799085394	0
0	1644	533.358936134032	1
0	1657	537.648933653143	0
0	1665	538.591840328188	1
0	1684	544.464283367158	2
0	1695	548.141449774621	0
0	1702	549.654356789547	1
0	1708	551.353749304312	1
0	1714	552.917420738731	0
0	1719	554.945342827828	1
0	1723	555.201792936777	1
0	1737	559.46567613189	0
0	1745	561.149016099754	1
0	1765	566.474093481903	2
0	1783	572.123768067458	2
0	1803	577.570276512769	2
0	1807	579.226997091791	1
0	1812	580.454306805394	1
0	1819	582.481985209979	0
0	1824	583.386949071898	1
0	1826	583.586593224671	1
0	1828	583.650752099235	0
0	1834	585.901167843381	0
0	1840	588.380307885939	0
0	1845	589.308301517977	1
0	1855	594.589699571491	1
0	1870	599.645327325915	1
0	1890	605.258244575472	2
0	1895	607.03707714845	0
0	1909	610.810127431066	1
0	1915	612.753669137723	0
0	1922	614.627262169965	1
0	1925	615.765690139267	0
0	1930	616.592014412866	1
0	1949	622.526977283186	1
0	1959	625.75360141858	0
0	1965	627.436364606841	0
0	1969	628.202287661847	1
0	1985	633.806164058861	1
0	1994	637.063120768177	0
0	1997	637.841624225378	0
0	2005	639.647336801518	1
0	2020	645.061458310582	1
0	2021	645.549877218555	0
0	2023	645.959198335655	0
0	2034	650.154760536276	1
0	2050	655.61824424961	1
0	2068	661.398961881412	2
0	2069	661.461504032839	1
0	2071	661.70509951597	0
0	2087	667.277755847903	1
0	2093	669.312846060613	0
0	2104	672.816271401946	1
0	2119	677.226016268138	0
0	2123	677.906303259548	1
0	2133	680.711375311603	0
0	2138	682.178823298428	0
0	2141	683.275795792348	0
0	2145	683.526486581195	1
0	2156	689.125634107277	1
0	2171	694.870628516427	1
0	2179	697.661621344513	0
0	2191	700.625282094585	1
0	2198	703.03958901554	0
0	2210	706.036911285719	1
0	2220	708.729070503617	0
0	2229	711.210146451606	1
0	2238	714.259117934159	0
0	2243	715.8291224452	0
0	2245	716.580406826806	0
0	2249	716.937359176348	1
0	2262	722.340361365587	1
0	2273	727.148121581767	0
0	2279	728.015935621927	1
0	2284	730.442684970216	0
0	2289	732.917897642362	0
0	2293	733.47848153301	1
0	2303	739.151978964223	1
0	2316	744.363961495929	1
0	2318	745.186500711604	0
0	2322	745.886218602541	0
0	2333	749.436065436345	1
0	2342	753.368435792629	0
0	2349	755.071608617673	1
0	2363	760.074676759312	1
0	2370	762.748929189754	0
0	2372	763.090473065505	0
0	2380	765.43607819593	1
0	2382	765.935782026853	0
0	2394	770.687992527154	1
0	2407	775.713574646744	1
0	2426	780.899970115633	2
0	2433	782.859951260735	0
0	2445	786.806778679374	1
0	2457	791.161415958895	0
0	2464	792.306390553252	1
0	2472	794.157082635215	1
0	2478	795.751907611969	0
0	2484	797.681952668476	0
0	2488	798.107733819871	1
0	2497	802.37579792657	0
0	2503	803.385262595727	1
0	2514	808.964949614373	0
0	2519	809.074867381253	1
0	2530	813.128942521177	0
0	2536	814.938670398672	1
0	2550	820.009704089495	0
0	2555	820.246956352149	1
0	2564	824.49652832712	0
0	2570	825.444887741473	1
0	2575	828.040864173793	0
0	2577	828.04745975952	0
0	2584	831.134082368346	1
0	2596	836.610079761133	1
0	2613	842.400435338499	1
0	2630	847.14228002285	0
0	2634	847.647636782149	1
0	2646	851.025192050615	0
0	2650	851.627604356039	0
0	2656	853.08659698768	1
0	2667	857.661633592919	0
0	2672	859.040622944715	1
0	2686	864.175846399744	1
0	2694	866.707520126137	0
0	2708	870.132746002641	1
0	2710	871.040982743729	0
0	2715	872.610339049952	0
0	2724	875.705206681047	1
0	2733	878.862379267117	0
0	2740	880.905008747945	1
0	2747	883.804004186186	0
0	2755	886.781699298419	1
0	2759	888.588519015122	0
0	2765	891.120069432077	0
0	2769	892.250677807493	1
0	2778	897.282070636752	0
0	2783	898.015547166349	1
0	2786	900.486091652075	0
0	2793	903.390564169505	1
0	2804	909.225208691092	1
0	2809	911.713739258356	0
0	2820	915.065337500771	1
0	2834	920.357099750548	1
0	2850	925.624430629661	2
0	2862	928.633187233359	1
0	2868	930.023317305373	0
0	2873	930.675708858998	1
0	2879	932.907458963342	0
0	2881	932.996671721927	0
0	2889	935.828348257582	1
0	2904	940.919718853434	1
0	2917	944.724500509682	0
0	2923	945.708568169389	0
0	2927	946.225523398727	1
0	2935	949.691809685555	0
0	2942	952.148555456897	1
0	2958	957.76116018114	1
0	2960	958.246360160762	0
0	2975	963.193258519288	1
0	2976	963.560482722827	0
0	2984	966.066959776802	0
0	2991	968.411050336672	1
0	3008	973.893456914232	0
0	3012	973.975258769704	1
0	3029	979.867182137914	1
0	3038	982.506713975342	0
0	3041	983.344048830568	0
0	3048	985.625650036152	1
0	3066	991.24012109591	1
0	3076	994.343551922129	0
0	3087	996.722715164072	1
0	3106	1002.599210512129	2
0	3123	1007.560925849018	0
0	3127	1007.77943866188	1
0	3133	1009.480871297308	0
0	3138	1011.110034606774	0
0	3145	1013.504133522746	1
0	3162	1019.055827212988	1
0	3180	1024.3275873384	2
0	3185	1025.723688952743	1
0	3188	1025.987995738863	1
0	3191	1026.391677335025	0
0	3204	1030.245340046243	1
0	3205	1030.343107866126	0
0	3207	1030.66054013884	0
0	3209	1031.064078043565	0
0	3216	1035.659956692488	1
0	3226	1041.09930359782	1
0	3235	1045.356821288124	0
0	3242	1047.057587484832	1
0	3244	1047.891841241396	0
0	3252	1052.144438739985	0
0	3256	1052.334468088116	1
0	3268	1057.797007218705	1
0	3280	1062.221995686301	0
0	3285	1062.924466617409	1
0	3292	1065.420175420007	0
0	3300	1068.601648358865	1
0	3306	1071.106737244645	0
0	3313	1073.68067422626	1
0	3320	1075.955968606872	0
0	3329	1079.4108604861	1
0	3335	1081.389165741628	0
0	3344	1084.716586810075	1
0	3350	1086.591206156305	0
0	3352	1087.68040771678	0
0	3359	1090.326271825707	1
0	3371	1096.1538177589	1
0	3372	1096.326156467436	0
0	3374	1097.660004306355	0
0	3378	1099.373899713745	0
0	3382	1102.141410515881	1
0	3389	1107.43511228939	1
0	3398	1112.655006754682	1
0	3404	1114.445713239493	0
0	3414	1118.503708017063	1
0	3429	1124.267331218817	1
0	3431	1125.38196628355	0
0	3449	1129.937545386613	1
0	3463	1134.519828804657	0
0	3470	1135.8159848447	1
0	3476	1137.534650426945	0
0	3488	1140.829626384195	1
0	3494	1142.291778868186	0
0	3501	1144.861290207022	0
0	3506	1145.944049022863	1
0	3514	1148.831068657693	0
0	3521	1151.839181826687	1
0	3537	1156.998301590331	1
0	3544	1159.415046407613	0
0	3550	1161.53038049024	0
0	3556	1162.866732250903	1
0	3571	1168.352672722893	1
0	3584	1172.497420591189	0
0	3590	1173.642138094179	1
0	3598	1176.313392181303	0
0	3606	1178.504104920551	0
0	3610	1179.2642909647	1
0	3620	1183.262797010134	0
0	3628	1185.154970984211	1
0	3631	1187.063493900586	0
0	3641	1190.759607024029	1
0	3647	1193.704401298546	0
0	3656	1196.635117662609	1
0	3669	1201.779427974023	1
0	3689	1207.499737587528	2
0	3692	1208.073195445238	1
0	3696	1208.849213549055	0
0	3705	1211.615310944969	0
0	3712	1213.482497657187	1
0	3714	1214.878285095449	0
0	3720	1217.825880060092	0
0	3725	1218.989005947955	1
0	3736	1224.339384162802	1
0	3752	1229.847521765627	1
0	3763	1232.760532277873	0
0	3767	1234.287904742643	0
0	3773	1235.680481679741	1
0	3774	1235.828543871413	0
0	3785	1240.990387275819	0
0	3790	1241.419538755206	1
0	3798	1246.162452742927	0
0	3802	1246.534299283292	1
0	3814	1251.932052243737	1
0	3815	1252.143525067138	0
0	3822	1254.968081424249	0
0	3827	1257.615834448723	1
0	3838	1262.664443623977	1
0	3847	1266.231722647327	0
0	3850	1266.825290886108	0
0	3854	1268.014190528546	1
0	3864	1273.551994058541	1
0	3883	1279.198110274742	1
0	3904	1284.786105066076	2
0	3912	1287.537110161973	1
0	3924	1290.153318084547	2
0	3925	1290.159731029771	0
0	3927	1291.201321112464	0
0	3938	1295.431564970178	1
0	3952	1300.523668560203	1
0	3953	1301.158710282766	0
0	3970	1305.530891462931	1
0	3977	1307.865637497166	0
0	3987	1311.004895215857	1
0	3990	1312.166785673707	1
0	3996	1313.633112968065	0
0	4006	1316.102034613726	1
0	4013	1317.931508099897	0
0	4025	1321.586405712183	1
0	4045	1326.964722550012	2
0	4048	1327.913457656632	0
0	4061	1332.48929965019	0
0	4065	1332.642113768034	1
0	4075	1337.187825870238	0
0	4080	1338.157787636392	1
0	4089	1341.819992450535	1
0	4098	1343.406081482772	1
0	4119	1349.094198003415	2
0	4142	1354.985495351724	2
0	4144	1355.874540591034	1
0	4146	1355.92768738908	0
0	4152	1357.829314639796	0
0	4156	1359.251548961741	1
0	4160	1360.737737391147	1
0	4175	1365.856666090436	1
0	4176	1366.141667794439	0
0	4197	1371.735800199214	1
0	4208	1375.365736324692	0
0	4218	1377.692427499456	1
0	4235	1382.395419740122	0
0	4242	1383.642292660199	1
0	4253	1387.137013338627	0
0	4262	1389.420725038279	1
0	4274	1393.658508685072	0
0	4281	1394.530744826192	1
0	4282	1395.209584239176	0
0	4286	1395.810752466906	0
0	4291	1398.961204637661	0
0	4296	1400.512459544469	1
0	4300	1402.638185654072	0
0	4307	1405.527845940091	1
0	4317	1410.750663437885	1
0	4326	1413.999328371375	0
0	4333	1415.941052340907	1
0	4348	1421.48741452117	1
0	4366	1427.22534347326	2
0	4389	1432.451274532829	2
0	4407	1437.925738381925	2
0	4409	1438.534527907736	1
0	4414	1439.694396419103	1
0	4423	1442.497607609377	1
0	4431	1443.625689345649	2
0	4437	1445.36510223046	0
0	4443	1447.359636950543	0
0	4448	1449.120651263515	1
0	4450	1450.070082432945	0
0	4461	1454.651062376103	1
0	4477	1460.096194320362	0
0	4481	1460.234746065461	1
0	4492	1464.18181534147	0
0	4498	1465.684174085506	1
0	4503	1467.340040544399	1
0	4514	1471.182998157576	1
0	4519	1472.767943928602	0
0	4527	1474.5690192777	0
0	4534	1476.185110171795	1
0	4537	1477.621098412319	0
0	4548	1481.898442134731	1
0	4566	1487.206712295073	1
0	4574	1489.772137373457	0
0	4579	1490.693326451123	0
0	4586	1493.117997583239	1
0	4601	1498.12407223904	1
0	4620	1503.5266666906	2
0	4642	1509.260988355619	2
0	4644	1510.407240776699	1
0	4648	1510.997830601529	0
0	4651	1512.231004683188	1
0	4661	1515.119186219764	1
0	4678	1520.688342132962	0
0	4682	1520.896149873971	1
0	4701	1526.125015825503	2
0	4716	1530.508962685595	0
0	4723	1531.670858203903	1
0	4729	1533.417747248201	0
0	4739	1537.400022482503	1
0	4759	1543.17997091555	0
0	4764	1543.238123634135	1
0	4765	1543.616579618425	1
0	4776	1547.261726700821	0
0	4783	1548.321973705435	1
0	4793	1551.504641628362	0
0	4795	1551.628138054517	0
0	4800	1553.187294312756	0
0	4804	1553.934198768813	1
0	4817	1559.43867071113	1
0	4831	1564.757222093646	1
0	4836	1566.122847548923	0
0	4850	1570.6221980874	1
0	4854	1571.68272192602	0
0	4858	1572.71173807432	0
0	4867	1576.057975674983	1
0	4881	1581.797299260277	1
0	4884	1582.894427255963	0
0	4898	1586.868943777637	1
0	4909	1590.59005818237	0
0	4917	1591.870295217264	1
0	4918	1592.091038944087	0
0	4927	1595.342241818439	0
0	4930	1595.6141991152	0
0	4935	1597.420905661074	1
0	4947	1602.950596426617	1
0	4964	1608.93951654551	1
0	4981	1614.069660304701	0
0	4986	1614.662291917954	1
0	4989	1615.800709571461	0
0	5004	1620.082817807332	1
0	5023	1625.110730995195	2
0	5046	1630.516050264709	2
0	5049	1630.95847346681	0
0	5063	1635.952751104025	1
0	5064	1636.028977184792	1
0	5067	1636.71181684465	1
0	5076	1638.837051365877	0
0	5081	1640.237029937448	0
0	5087	1641.341910666324	1
0	5093	1644.140538727286	0
0	5101	1646.401158669501	1
0	5121	1652.289396040145	1
0	5131	1655.665972153193	0
0	5139	1657.698577505074	1
0	5157	1663.134123238273	2
0	5173	1667.508964071636	0
0	5180	1668.875581839591	1
0	5189	1671.946162760611	0
0	5199	1674.417136897104	1
0	5211	1677.837112746089	1
0	5221	1680.135537431114	2
0	5227	1682.368494344179	0
0	5239	1685.253225111873	1
0	5241	1685.807280013342	0
0	5248	1688.694815381086	0
0	5255	1690.733272066577	1
0	5267	1694.234904139191	1
0	5275	1696.201396606634	1
0	5277	1696.829282587281	0
0	5283	1699.095789524499	0
0	5291	1701.521020829216	1
0	5307	1707.100055326712	1
0	5309	1708.082480444344	0
0	5316	1710.88218359801	0
0	5322	1712.391987540298	1
0	5341	1718.063978670868	1
0	5354	1722.325457205419	0
0	5362	1723.790368085033	1
0	5383	1729.006754051433	2
0	5385	1729.743229688732	0
0	5387	1730.026217841782	0
0	5398	1734.786641380289	1
0	5403	1736.872871321512	0
0	5413	1740.780767656402	1
0	5425	1744.307623330392	0
0	5433	1746.566883194731	1
0	5451	1751.878441974991	1
0	5452	1752.39500566258	1
0	5472	1757.663011648464	2
0	5474	1757.743095451272	0
0	5478	1758.429106061817	0
0	5490	1763.120015469617	1
0	5495	1765.166575096086	0
0	5506	1768.75538992044	1
0	5507	1769.388812469207	1
0	5515	1772.202614765153	0
0	5522	1774.051006263592	1
0	5530	1777.18030531309	0
0	5536	1779.743612676863	1
0	5539	1780.995872401984	0
0	5543	1782.894941530776	0
0	5549	1785.082191026541	1
0	5557	1789.817223259019	0
0	5561	1790.990335152256	1
0	5567	1794.414824050974	0
0	5573	1796.599945744737	1
0	5583	1802.19800729305	1
0	5593	1806.175900847772	0
0	5600	1807.234395604818	1
0	5616	1812.90866915137	1
0	5617	1813.115230885688	0
0	5620	1813.488582247756	0
0	5632	1818.896457664207	1
0	5645	1824.597619495824	1
0	5667	1829.632512565473	2
0	5688	1835.476270567164	2
0	5694	1837.262950747043	0
0	5703	1840.616806512937	0
0	5707	1840.809363445504	1
0	5709	1841.438986918426	1
0	5714	1843.63933197514	1
0	5724	1846.483856073352	1
0	5741	1851.770200884439	2
0	5761	1857.087416766914	2
0	5774	1860.527281688879	1
0	5784	1862.947413850347	2
0	5803	1868.263461744647	1
0	5807	1868.540734097133	2
0	5826	1873.876227377685	2
0	5827	1873.963629340293	1
0	5838	1877.382602348692	1
0	5849	1879.595267529836	2
0	5850	1879.624318104126	1
0	5854	1880.071461931225	0
0	5870	1885.522802115887	1
0	5873	1886.678220954844	0
0	5890	1891.421871531292	1
0	5896	1893.486154677118	0
0	5906	1896.817773285558	1
0	5913	1898.315535672127	0
0	5919	1900.310303646027	0
0	5926	1902.510424777403	1
0	5943	1908.033237540166	1
0	5951	1910.809178862606	1
0	5964	1913.535245378737	2
0	5966	1913.990992949814	1
0	5988	1919.443891907579	2
0	5999	1922.150664304737	0
0	6001	1922.793107693786	0
0	6010	1925.070280383111	1
0	6015	1927.887989041864	0
0	6024	1931.054327633235	1
0	6025	1931.480575038939	1
0	6039	1936.529915676921	1
0	6051	1940.10121217149	0
0	6061	1942.041886383671	1
0	6073	1945.717200750489	0
0	6081	1947.635119670074	1
0	6093	1951.343854409646	0
0	6098	1952.799256309871	0
0	6102	1953.189187830783	1
0	6118	1958.555418916283	1
0	6140	1964.373839893615	2
0	6146	1966.136607133088	0
0	6150	1966.732904740263	0
0	6157	1969.396771919219	1
0	6162	1971.489888050363	0
0	6171	1974.62708510389	1
0	6182	1980.207504722877	1
0	6187	1980.484543162635	1
0	6203	1985.521172551675	2
0	6208	1986.508139892716	0
0	6222	1990.678685396914	1
0	6234	1994.506636074865	0
0	6236	1994.679279246955	1
0	6245	1995.934187773852	1
0	6265	2001.333261922006	2
0	6270	2003.431689180323	1
0	6273	2004.204002359537	0
0	6279	2005.794647639387	0
0	6284	2006.583421184453	1
0	6298	2012.237107861908	0
0	6302	2012.360356870112	1
0	6316	2017.791842154698	1
0	6336	2023.213160197721	2
0	6347	2026.27113667096	0
0	6355	2028.499397857119	1
0	6362	2030.31757724507	1
0	6372	2033.656615105344	0
0	6378	2034.178333859662	1
0	6398	2039.297034368156	2
0	6406	2041.947040062173	1
0	6410	2043.155191424307	0
0	6418	2044.801569330976	1
0	6437	2049.995696812174	2
0	6452	2054.663652043097	0
0	6458	2055.246441544038	1
0	6460	2056.244629211029	0
0	6475	2060.886179902362	1
0	6482	2062.574788123723	0
0	6492	2065.925475108674	1
0	6503	2068.789083117278	1
0	6510	2070.903411331008	0
0	6512	2070.910356114158	0
0	6516	2071.050432252003	1
0	6517	2071.380612991172	0
0	6530	2076.552424872996	1
0	6546	2081.743439175425	1
0	6547	2082.17307334673	0
0	6564	2087.48698518787	0
0	6568	2087.514889794871	1
0	6583	2092.927182291871	1
0	6588	2094.118892788075	0
0	6600	2098.210501613332	1
0	6624	2103.859827529643	2
0	6639	2108.717370397182	0
0	6645	2109.259291891013	1
0	6648	2110.080269923552	1
0	6657	2112.540565346488	0
0	6667	2114.332705559912	1
0	6686	2119.472320175501	2
0	6688	2119.593062209667	0
0	6701	2124.454138113655	0
0	6706	2125.245400775228	1
0	6721	2130.730594222671	1
0	6723	2131.721510389939	0
0	6740	2136.534939910755	1
0	6745	2137.810163947407	1
0	6759	2141.910276856743	2
0	6770	2144.610341902944	0
0	6774	2145.688906474045	0
0	6780	2147.575013991915	1
0	6786	2150.193513270474	0
0	6795	2153.141512612583	1
0	6797	2154.743002853707	1
0	6808	2158.227531385146	1
0	6812	2159.400716738196	0
0	6823	2162.799239497284	0
0	6827	2163.351267385067	1
0	6837	2166.924276767185	0
0	6844	2168.409984469883	1
0	6848	2170.187182547645	0
0	6859	2174.099016876662	1
0	6868	2177.55179842946	0
0	6875	2179.369916208325	1
0	6876	2180.144478095583	0
0	6888	2184.510444714226	1
0	6905	2190.168355576698	1
0	6925	2195.473534876019	2
0	6939	2200.010085224292	1
0	6943	2200.624624650231	2
0	6954	2204.330189865086	0
0	6961	2206.055626467107	1
0	6968	2207.765170320873	0
0	6981	2211.920949036027	1
0	6985	2213.241932198061	0
0	7000	2217.836093714232	1
0	7021	2223.694671561014	2
0	7037	2229.009721705458	1
0	7041	2229.237942226235	2
0	7044	2230.327098656451	0
0	7047	2231.080646631197	0
0	7057	2235.13562197355	1
0	7063	2238.147165247592	0
0	7068	2240.667788653871	1
0	7072	2240.921324287079	1
0	7081	2245.134707255755	1
0	7089	2246.920196383496	1
0	7111	2252.64253205201	2
0	7131	2257.796038516568	2
0	7133	2258.173150350342	0
0	7148	2263.402293972209	1
0	7169	2268.671073735695	2
0	7170	2268.93300068146	1
0	7172	2269.487044965266	1
0	7176	2270.150469984747	0
0	7186	2274.535223065415	1
0	7190	2274.539536960659	1
0	7200	2277.468190641145	0
0	7209	2279.827930366624	1
0	7224	2284.760740549887	0
0	7230	2285.497855848404	1
0	7248	2290.906246459466	0
0	7254	2291.494500546487	1
0	7256	2292.118543179245	0
0	7270	2296.616387702761	1
0	7290	2302.586440206742	2
0	7293	2303.766080486824	0
0	7302	2306.448818988637	0
0	7308	2308.306309399199	1
0	7324	2314.091973440726	1
0	7333	2317.196394430595	0
0	7338	2318.348352081614	0
0	7344	2319.741162483119	1
0	7353	2323.123605853766	0
0	7356	2324.386873125683	1
0	7361	2325.623908873652	1
0	7377	2330.628565744269	1
0	7394	2335.947937468999	0
0	7398	2336.239945032406	1
0	7402	2337.510829123326	0
0	7407	2339.174574815556	0
0	7416	2341.756545121321	1
0	7429	2347.028741098946	1
0	7432	2348.556799531104	0
0	7446	2352.167135724571	1
0	7464	2357.313483923447	2
0	7474	2359.878689034379	0
0	7482	2362.692769878317	0
0	7488	2363.242455634993	1
0	7504	2368.976033596328	1
0	7511	2371.661809790768	1
0	7514	2372.497861659858	0
0	7523	2374.338549691026	1
0	7533	2378.083004944965	0
0	7542	2379.765084036632	1
0	7545	2380.480364758761	0
0	7550	2382.859135396668	0
0	7559	2385.752716088441	1
0	7561	2386.513391129097	0
0	7574	2391.38600361441	1
0	7577	2392.72187155509	0
0	7585	2396.713493647759	1
0	7601	2402.599556389271	1
0	7620	2407.940165606334	2
0	7638	2413.420985560289	0
0	7643	2413.626874746761	1
0	7652	2416.035108912276	0
0	7654	2416.245371439733	1
0	7656	2416.751013900277	0
0	7663	2419.072080458288	1
0	7679	2425.036908463349	1
0	7702	2430.302555779468	2
0	7704	2430.688385263791	1
0	7713	2433.842019371695	0
0	7722	2435.900785957237	1
0	7725	2437.293225953594	0
0	7740	2440.985509244965	1
0	7761	2446.861375372864	2
0	7773	2451.254556144361	0
0	7780	2452.738597528783	1
0	7799	2458.524026042323	2
0	7806	2460.359134550796	1
0	7813	2462.479365093526	0
0	7820	2463.785528969725	1
0	7840	2469.080946751411	2
0	7842	2469.790410040187	0
0	7850	2471.595491638997	1
0	7859	2474.263685507473	1
0	7866	2476.330155387761	1
0	7878	2479.559312905889	2
0	7897	2484.6129029973	2
0	7915	2489.690139003336	2
0	7916	2489.855610567268	0
0	7926	2493.027374423233	1
0	7934	2494.848399105254	1
0	7943	2497.018224683248	1
0	7958	2500.046022385597	2
0	7980	2505.982714505406	2
0	7981	2506.046676617822	1
0	7993	2509.516309815353	1
0	8004	2511.946708807029	2
0	8006	2512.565567409859	1
0	8023	2517.17117207917	2
0	8025	2517.733199650666	0
0	8037	2522.149759330561	1
0	8041	2522.177806325495	1
0	8045	2523.719823218191	0
0	8047	2523.856340650008	0
0	8054	2527.219247460139	1
0	8059	2528.028029970364	1
0	8072	2533.045170868752	1
0	8082	2536.279328095267	0
0	8089	2538.191314097732	1
0	8106	2543.402051637767	0
0	8110	2543.496002936275	1
0	8120	2546.166967782896	0
0	8123	2546.424301791827	0
0	8132	2548.818632970103	1
0	8140	2551.988242351572	0
0	8147	2553.959435272268	1
0	8161	2558.334555400658	0
0	8166	2559.32429281157	1
0	8171	2562.194563568575	0
0	8180	2565.094236269132	1
0	8191	2569.885389170614	0
0	8196	2570.680401459108	1
0	8199	2571.362484155577	0
0	8209	2576.200520886578	1
0	8223	2581.481765880486	1
0	8234	2583.816062089992	0
0	8244	2586.681999566736	1
0	8260	2591.752302117184	2
0	8279	2596.905634595666	0
0	8284	2597.090915902522	1
0	8301	2602.049648978404	0
0	8305	2602.128544630021	1
0	8310	2603.527982435659	0
0	8313	2604.346817061308	0
0	8320	2606.792285292181	1
0	8324	2607.45340520889	1
0	8342	2612.967688896232	1
0	8359	2617.995315391575	2
0	8380	2623.651448309659	2
0	8387	2625.919531175636	1
0	8392	2626.811439689949	0
0	8394	2626.963752025509	0
0	8402	2628.954069233038	1
0	8408	2632.045111166438	1
0	8419	2634.874906205111	1
0	8428	2638.141022988831	0
0	8430	2638.509043865725	0
0	8432	2638.659079753099	0
0	8437	2640.381047008331	1
0	8448	2645.959829480392	1
0	8461	2651.114599254453	1
0	8464	2651.359054911541	0
0	8478	2656.403020521631	1
0	8487	2659.004739922011	0
0	8500	2662.325966391019	1
0	8510	2665.219821200478	0
0	8520	2667.469067310454	1
0	8526	2669.55054958922	0
0	8531	2671.005572664903	0
0	8536	2672.761515412021	0
0	8541	2673.399867550708	1
0	8547	2676.789103058637	0
0	8553	2679.275638402212	1
0	8564	2685.214645247679	1
0	8566	2685.510644245082	0
0	8573	2688.264801755786	0
0	8578	2690.520514816982	1
0	8585	2695.467006507102	0
0	8589	2696.103682264458	1
0	8600	2701.81784666563	1
0	8614	2706.945964128483	1
0	8622	2708.778096013476	0
0	8630	2711.243816766777	0
0	8636	2712.755340548238	1
0	8652	2718.267339687102	1
0	8664	2722.379083779413	0
0	8671	2723.28839538573	1
0	8673	2724.403949608451	0
0	8689	2728.322584880988	1
0	8710	2733.35697486974	2
0	8731	2739.298219336669	2
0	8734	2740.379264536436	0
0	8742	2742.899957583292	1
0	8748	2744.549812732969	1
0	8764	2749.621998602647	0
0	8769	2749.807071274385	1
0	8775	2752.568020704791	1
0	8785	2755.436672745977	2
0	8789	2756.250524620531	0
0	8803	2760.846112120204	1
0	8820	2765.865828013636	0
0	8824	2766.544413518402	0
0	8828	2766.792635352822	1
0	8840	2771.69741540589	1
0	8846	2772.094889024744	1
0	8858	2775.652375276556	0
0	8866	2777.42882513628	1
0	8888	2783.385689282563	2
0	8893	2784.16934004869	0
0	8906	2788.747351483448	1
0	8913	2790.613028975909	0
0	8926	2793.783932833938	1
0	8934	2796.581239569239	0
0	8944	2799.478363327222	1
0	8954	2802.023703455113	1
0	8958	2802.788172111733	0
0	8966	2804.894212274584	0
0	8968	2805.030237134784	0
0	8972	2805.424430466961	1
0	8982	2811.228290340403	1
0	8998	2816.302119442966	1
0	9007	2818.50909565285	0
0	9019	2821.627071946167	1
0	9023	2822.830272513563	0
0	9037	2827.094164445071	1
0	9039	2827.778140785528	0
0	9050	2832.331004429032	0
0	9054	2832.826044768334	1
0	9071	2838.185738714418	1
0	9088	2843.292816727428	2
0	9089	2843.343979469506	0
0	9092	2843.887395702774	0
0	9096	2845.463182072394	0
0	9103	2848.487455658388	1
0	9112	2853.498290906899	1
0	9124	2858.429402744871	1
0	9128	2859.055039580219	1
0	9138	2862.16058478866	0
0	9148	2864.671890833654	1
0	9165	2870.16624572501	0
0	9169	2870.636937573093	1
0	9177	2872.724457850687	0
0	9179	2873.400244429479	0
0	9187	2875.921705940279	1
0	9189	2876.534321351099	0
0	9192	2877.66710266262	0
0	9199	2881.156089444185	1
0	9211	2886.865789679583	1
0	9220	2890.276476090781	0
0	9223	2890.933771201996	0
0	9227	2892.507640670641	0
0	9231	2892.803902652586	1
0	9234	2896.084240500704	0
0	9238	2898.508368297486	1
0	9245	2903.884880288976	1
0	9257	2908.967920023721	1
0	9263	2912.106711857026	0
0	9271	2914.656690442242	1
0	9281	2919.102268718305	0
0	9288	2920.099099858204	1
0	9304	2926.027679884113	1
0	9313	2928.538844439789	0
0	9320	2930.566793681012	0
0	9325	2931.128212718065	1
0	9341	2936.556211517663	1
0	9342	2937.002243808009	0
0	9360	2942.308824632089	1
0	9361	2942.444739579228	0
0	9378	2947.382418581522	1
0	9399	2952.889696750562	2
0	9403	2954.245845366622	1
0	9414	2957.09874428297	0
0	9421	2958.749772338434	1
0	9428	2960.825603775682	0
0	9441	2964.614434212218	1
0	9442	2964.748687565681	0
0	9462	2970.229500708175	1
0	9482	2975.668976753256	2
0	9501	2980.743964800616	2
0	9502	2980.931783707931	1
0	9522	2986.24173313403	1
0	9526	2986.490075093699	2
0	9546	2992.421795827342	2
0	9547	2992.436264735415	1
0	9566	2997.960669845696	0
0	9570	2998.201351705013	1
0	9577	3000.197177858796	0
0	9589	3003.794429356937	1
0	9608	3009.15401254432	2
0	9630	3014.826451345819	2
0	9634	3015.716715955642	1
0	9643	3018.227215071326	0
0	9645	3018.339701988269	1
0	9649	3019.206894496462	0
0	9655	3020.321745078319	1
0	9672	3026.224812544423	1
0	9676	3027.354633694287	1
0	9678	3027.474171673071	0
0	9693	3031.76574226679	1
0	9708	3036.911687699263	0
0	9712	3037.465467726119	0
0	9716	3037.49879021594	1
0	9728	3042.409431561951	0
0	9732	3042.562895575545	1
0	9748	3048.287924617536	1