version 3
run General-15-20240430-20:30:43-5483
attr configname General
attr datetime 20240430-20:30:43
attr datetimef 20240430-203043
attr experiment General
attr inifile omnetpp.ini
attr iterationvars $0=false
attr iterationvarsd false
attr iterationvarsf false-
attr measurement $0=false
attr network Supermarket
attr processid 5483
attr repetition 5
attr replication #5
attr resultdir results
attr runnumber 15
attr seedset 15
config network Supermarket
config repeat 10
config num-rngs 10
config **.use_random_strategy false

vector 0 Supermarket queueSizeOverTime:vector ETV
attr recordingmode vector
attr source updateQueue
attr title queueSizeOverTime
vector 1 Supermarket customerWaitingTime:vector ETV
attr interpolationmode none
attr recordingmode vector
attr source customerFinished
attr title "cust waiting time"
0	7	5.652326327749	1
0	14	11.584141101223	1
0	17	13.103303897428	0
0	24	17.023167528213	1
0	34	22.372248268687	1
0	41	24.875007058843	0
0	49	27.929054081674	1
0	64	33.10187468736	0
0	69	33.574673137862	1
0	86	39.206492320869	1
0	97	42.491219774006	0
0	107	45.08944725292	1
0	108	45.732418966481	0
0	110	45.789614313168	0
0	123	51.012823637577	1
0	136	55.439154127964	0
0	142	56.653673558731	1
0	144	57.884456003437	0
0	154	61.733436580982	1
0	170	66.965402618518	1
0	183	71.924284192154	0
0	189	72.429342816818	1
0	194	73.489371840612	0
0	210	78.427725982854	1
0	222	82.582500383261	0
0	229	83.817067167258	1
0	245	89.167116751665	0
0	250	89.5409041103	1
0	270	94.992650162198	2
0	275	95.998359361551	0
0	279	97.188341766364	0
0	287	100.469523406823	1
0	289	101.173710540289	0
0	298	105.584145478208	1
0	314	110.830381211827	1
0	330	115.4950572243	0
0	332	115.691793710578	1
0	334	116.057520797361	0
0	338	116.326859197349	1
0	356	122.00959636085	1
0	379	127.834175212079	2
0	387	130.905900977552	0
0	398	133.470852480739	1
0	400	133.704913571364	1
0	419	138.804204262444	0
0	423	139.057134343547	1
0	424	139.577242184783	0
0	437	143.77871652041	0
0	442	144.585287667115	1
0	443	144.719073497577	0
0	452	150.384223286414	0
0	456	150.418423178375	1
0	468	156.009318730563	1
0	485	161.571374663387	1
0	494	163.710012215541	0
0	505	166.653814161199	1
0	522	171.889471570148	0
0	526	171.965859826424	1
0	531	173.665307620892	0
0	543	177.249892589639	1
0	544	177.561592667016	0
0	546	177.782443510487	0
0	551	179.122931294029	0
0	557	182.302695697642	1
0	567	187.490617921346	1
0	568	187.729891589846	0
0	574	190.445377295607	0
0	580	192.736259873727	1
0	594	198.728024831278	1
0	597	200.037705857078	0
0	604	204.162985838021	0
0	608	204.447563700381	1
0	619	210.32734014816	1
0	637	215.958823452009	1
0	639	216.631787323629	0
0	654	221.736592779406	1
0	672	227.480730392043	2
0	683	230.165570841641	1
0	693	232.65865189536	2
0	701	234.73292937654	0
0	704	235.662114206008	0
0	706	236.351754701468	0
0	712	238.628054489852	1
0	722	243.679347392875	1
0	724	244.404270106349	1
0	736	248.939667833974	0
0	741	249.15527264332	1
0	757	254.21164992522	1
0	775	259.48707037047	2
0	796	265.200164944636	2
0	809	268.833527266286	0
0	816	270.430059995506	1
0	817	270.440184492041	1
0	827	273.611381216564	0
0	829	273.770618959685	1
0	834	274.936001362748	0
0	841	276.279138629794	1
0	855	281.742430870192	1
0	856	281.853453295777	0
0	875	286.956050862562	1
0	876	287.016398611134	0
0	878	287.060561706315	0
0	889	292.410138644049	1
0	894	294.112169938049	0
0	904	298.409562102756	1
0	919	303.508501144596	1
0	925	305.225077813963	0
0	937	308.745838942011	1
0	954	313.88018565346	2
0	962	315.632550335494	0
0	968	317.664214110005	1
0	975	319.604787766938	1
0	984	322.813042450701	0
0	992	324.947911667642	1
0	995	325.585770446112	0
0	1001	327.645974995687	0
0	1003	327.907401929032	0
0	1009	330.036077676578	1
0	1010	330.104682853566	0
0	1018	335.872054402022	1
0	1021	337.164486733269	0
0	1023	337.485285004722	0
0	1027	340.99115415011	1
0	1034	346.026173833529	1
0	1035	346.412614550212	0
0	1040	349.617092913486	0
0	1044	351.207808599346	1
0	1052	357.18051114446	1
0	1064	362.393582338705	1
0	1080	368.062113830359	1
0	1085	370.021166500872	0
0	1091	372.553414583794	0
0	1097	373.521745722047	1
0	1107	378.223194088442	0
0	1109	378.249537121044	0
0	1114	379.30931100762	1
0	1125	384.501980111241	1
0	1142	390.403510238515	1
0	1143	390.835113653336	0
0	1157	396.031576390849	1
0	1179	401.377963085198	2
0	1181	402.167670678586	0
0	1192	405.964452659483	1
0	1194	406.115217948452	0
0	1198	406.83945662715	1
0	1207	410.032556403084	0
0	1214	412.445301534845	1
0	1226	417.346808014558	0
0	1231	417.606220180639	1
0	1246	423.39137805277	1
0	1252	425.401104310998	0
0	1263	428.741230695047	1
0	1270	431.389012312055	0
0	1282	434.687521344288	1
0	1304	440.585816179639	2
0	1312	443.061341801083	0
0	1320	445.544267787137	1
0	1322	445.697894397079	0
0	1326	445.770776025955	1
0	1341	451.078747864584	1
0	1350	453.802889621705	0
0	1360	456.170506187486	1
0	1362	457.536411080746	0
0	1370	459.254559581405	0
0	1379	461.946809230377	1
0	1386	465.583292852046	0
0	1393	467.695488302042	1
0	1410	473.472832604316	1
0	1426	478.098324642871	0
0	1433	479.336712855617	1
0	1440	481.109197803312	0
0	1452	484.910394828538	1
0	1473	490.684439312904	2
0	1482	494.269423706461	1
0	1488	495.907726733252	0
0	1492	495.982422193982	1
0	1500	498.178891328282	0
0	1512	501.13832956809	1
0	1535	507.056966602573	2
0	1545	510.09943259799	0
0	1549	510.972168250248	1
0	1558	512.990563723029	1
0	1576	518.474765274211	2
0	1581	520.14874304063	0
0	1596	524.246930998055	1
0	1599	525.002738995135	1
0	1619	529.974659615433	2
0	1628	532.407128600871	0
0	1638	535.066269333013	1
0	1643	536.142184575325	0
0	1658	540.213157210503	1
0	1679	545.828341031684	2
0	1680	546.075008140183	0
0	1684	546.691589522764	1
0	1702	551.779199397428	1
0	1709	553.986530572182	0
0	1715	555.863670057039	0
0	1721	557.769078576708	1
0	1732	562.275329384723	1
0	1737	563.111773428278	1
0	1742	564.928214264571	0
0	1754	568.868210819786	1
0	1761	571.364851881985	0
0	1763	571.421317657111	0
0	1765	572.219559606517	0
0	1770	574.110498430909	1
0	1773	575.148404229669	0
0	1782	579.758333168228	1
0	1787	582.41870091332	0
0	1793	584.874404456935	1
0	1798	588.142313947903	0
0	1800	589.022390305416	0
0	1804	590.143003608569	1
0	1806	591.695333390034	0
0	1810	596.118534854151	1
0	1813	599.600349652584	0
0	1817	601.174004562203	1
0	1819	603.328019435056	0
0	1823	607.049410948999	1
0	1829	612.24772812636	1
0	1841	617.80206519971	1
0	1851	621.969140468517	0
0	1857	623.183992889247	1
0	1874	628.733530994275	1
0	1877	629.390063576053	0
0	1886	632.17551459675	0
0	1892	634.332136766523	1
0	1895	635.169894730443	0
0	1898	636.612580058633	0
0	1900	636.969406877299	0
0	1904	640.152995448796	1
0	1911	645.177744767167	1
0	1921	650.262631708294	1
0	1936	656.044789711716	1
0	1956	661.450843550269	2
0	1973	666.519213975179	2
0	1976	667.637792809753	1
0	1979	667.863486748777	1
0	1993	671.551671554805	2
0	2014	676.824611059861	2
0	2021	678.631099304304	0
0	2028	681.325454847657	0
0	2033	682.272291431442	1
0	2037	684.33981229645	1
0	2042	685.454755254208	1
0	2050	687.833183927933	1
0	2067	692.851545262389	2
0	2074	694.539578793111	0
0	2086	698.312195549259	1
0	2092	700.363347513956	0
0	2101	702.824691532764	0
0	2104	703.428645252839	0
0	2108	704.018181491183	1
0	2118	709.281499031238	1
0	2134	714.614670463843	1
0	2140	716.350746045597	1
0	2154	719.76569156163	2
0	2165	722.577772502677	0
0	2174	724.814368418191	1
0	2193	730.222336148849	2
0	2198	731.567679121751	1
0	2213	735.677786223829	2
0	2216	736.385225470651	1
0	2222	737.492430963446	1
0	2239	741.239268779062	2
0	2244	742.585742797479	1
0	2259	746.481245524024	0
0	2265	746.989025359746	1
0	2279	752.029546024054	0
0	2283	752.249085058929	1
0	2288	753.851601937906	0
0	2302	757.471408921532	1
0	2318	762.08884655743	0
0	2325	763.080952420137	1
0	2326	763.99610274763	0
0	2343	768.568541580117	1
0	2353	772.120288817569	0
0	2360	773.868140450217	1
0	2364	774.923653304463	0
0	2367	775.326535491393	0
0	2379	779.133953902874	1
0	2395	784.577133249495	1
0	2399	785.68016213913	0
0	2412	789.618433825908	1
0	2413	789.63748938556	0
0	2422	793.587575051472	0
0	2429	795.477280080555	1
0	2430	795.915679038157	0
0	2443	801.321737321796	1
0	2453	805.264736022454	0
0	2455	805.506038053663	0
0	2460	806.424589843027	1
0	2466	809.035626736589	0
0	2472	811.984002356887	1
0	2483	817.375924438009	1
0	2497	822.604521264326	1
0	2518	827.867364026377	2
0	2540	833.314679121602	2
0	2552	836.800388439561	1
0	2554	836.913944604692	1
0	2563	838.493801603563	2
0	2567	839.69744857075	0
0	2584	844.324160032909	1
0	2585	844.444839926555	0
0	2594	847.118522041247	0
0	2602	849.451401176633	1
0	2619	855.417822069725	1
0	2634	859.281751982985	1
0	2639	860.644313919129	2
0	2646	862.466499773441	0
0	2658	866.126344247027	1
0	2671	870.418282637958	0
0	2677	871.337972104787	1
0	2683	872.976662938018	1
0	2690	875.528312385553	0
0	2699	877.125625501857	1
0	2702	878.122794313477	0
0	2706	879.893506827066	0
0	2714	882.409392439998	1
0	2722	884.986962740196	0
0	2730	888.238145847111	1
0	2743	893.249371353541	1
0	2765	899.112325733765	2
0	2769	899.750629847873	0
0	2776	902.554680683888	0
0	2778	902.881105881072	1
0	2783	904.45769097866	1
0	2801	909.988096017628	1
0	2818	915.178721105219	2
0	2824	917.118328039073	0
0	2836	920.448996719211	1
0	2837	920.754163341134	0
0	2853	926.115375511586	1
0	2862	928.893560836676	1
0	2874	931.973102989611	2
0	2894	937.724062541737	2
0	2901	939.692790399776	0
0	2903	939.782011087989	1
0	2909	941.976463467349	1
0	2912	943.245423235587	0
0	2916	943.440560836815	1
0	2922	945.711320674516	0
0	2931	949.063474799511	1
0	2947	954.181879203538	1
0	2968	960.095013504619	2
0	2988	965.52446858725	2
0	2994	967.428427604149	0
0	2999	969.107140700682	1
0	3004	970.913464809306	1
0	3008	971.128297511725	1
0	3010	971.71196940367	0
0	3016	973.663627317412	0
0	3026	976.838243607203	1
0	3040	981.962891208245	1
0	3046	984.011291204607	0
0	3058	987.102933418243	1
0	3065	989.343094859859	0
0	3075	992.872646022244	0
0	3079	992.969256546586	1
0	3081	993.862101021572	0
0	3092	998.687348533659	1
0	3108	1004.308243962941	1
0	3128	1010.060640286426	2
0	3142	1014.123835645388	0
0	3149	1015.578078315365	1
0	3151	1016.315650929117	0
0	3157	1017.889427524181	0
0	3163	1020.577350888639	1
0	3168	1021.438172843777	1
0	3178	1025.938671590302	0
0	3186	1027.282216256256	1
0	3202	1032.957902971892	1
0	3224	1038.82538116421	2
0	3232	1041.395737775608	1
0	3239	1043.200725599196	0
0	3245	1044.180877053183	1
0	3250	1045.544533393003	0
0	3256	1048.418899892719	0
0	3264	1050.000005451734	1
0	3279	1055.171784706884	1
0	3282	1055.907122219799	0
0	3291	1058.340138569361	0
0	3296	1060.409998590712	0
0	3300	1060.603887886978	1
0	3301	1060.653173179138	0
0	3308	1066.269586715852	1
0	3321	1071.851574465404	1
0	3333	1076.902141804113	1
0	3352	1082.21345575457	2
0	3361	1085.987865034146	0
0	3369	1087.845439528353	1
0	3381	1092.47258519964	0
0	3383	1092.771923943545	1
0	3388	1093.371224194305	1
0	3403	1097.666094993827	0
0	3409	1099.134154153295	1
0	3428	1105.082013488986	2
0	3430	1105.316536010831	0
0	3438	1107.947257307247	0
0	3446	1110.594109142438	1
0	3450	1112.598127757556	1
0	3462	1115.88522329345	1
0	3471	1118.621068793939	0
0	3481	1121.265083395649	1
0	3501	1126.50194489258	2
0	3509	1129.247680418665	0
0	3521	1132.276629989274	1
0	3523	1132.948201667523	0
0	3529	1135.222674161201	0
0	3531	1135.504663074748	1
0	3538	1138.153539115802	1
0	3543	1139.830684478055	0
0	3548	1142.388276243472	0
0	3552	1143.209848097765	1
0	3563	1148.763309335808	1
0	3576	1153.315862440161	0
0	3582	1154.293360397692	1
0	3586	1156.182847021736	0
0	3594	1159.366707698682	1
0	3608	1165.030415817637	1
0	3632	1170.679482898217	2
0	3645	1174.534296665931	1
0	3653	1175.795882169864	2
0	3668	1180.632339100595	1
0	3673	1180.809384177214	2
0	3675	1181.022433336716	0
0	3680	1182.497840531292	0
0	3690	1185.884811358301	1
0	3706	1191.666661402218	1
0	3713	1194.543232458069	0
0	3716	1194.80397813768	0
0	3724	1197.380867906621	1
0	3732	1201.145503547982	0
0	3738	1202.396126669606	1
0	3749	1206.993028571255	1
0	3753	1207.4236650155	1
0	3767	1211.979609391894	0
0	3773	1212.935451627251	1
0	3785	1216.306499606938	0
0	3793	1218.008890164791	1
0	3814	1223.701846496908	2
0	3823	1226.346336465219	0
0	3826	1226.672092457543	1
0	3834	1228.726415184334	1
0	3851	1234.209220314639	2
0	3867	1239.225092807908	0
0	3872	1239.378697463086	1
0	3879	1242.19129875012	0
0	3881	1242.826867415692	0
0	3889	1244.970409960261	1
0	3898	1249.225346340688	0
0	3903	1250.347671549077	1
0	3920	1255.885791722228	1
0	3923	1257.208832294341	1
0	3940	1261.364146324814	2
0	3962	1267.286092686242	2
0	3965	1268.35554070853	1
0	3982	1272.645611220746	2
0	3986	1273.600819992608	1
0	3990	1274.657798555572	1
0	4004	1278.341168506312	2
0	4006	1278.745355528438	0
0	4022	1283.508297793575	1
0	4042	1289.360028100441	2
0	4044	1289.921419515514	0
0	4056	1294.125194719768	1
0	4061	1294.764316713213	1
0	4081	1300.282055794735	2
0	4097	1304.91253958562	1
0	4103	1305.767590584241	2
0	4106	1306.767637058172	1
0	4125	1311.431983949857	2
0	4135	1314.118736605751	0
0	4138	1314.753793651828	0
0	4141	1315.870332515923	1
0	4143	1316.453412141429	1
0	4147	1316.799940804959	1
0	4157	1321.611794140664	0
0	4162	1322.582169070615	1
0	4179	1327.703569168931	1
0	4196	1333.005025967265	2
0	4197	1333.287446741955	0
0	4200	1333.613223711968	0
0	4211	1338.873679641176	1
0	4212	1339.005082853498	1
0	4214	1340.062604154117	0
0	4223	1343.708910340337	0
0	4227	1343.955572223531	1
0	4231	1347.030651141898	0
0	4238	1349.882290741902	1
0	4249	1355.400103004424	1
0	4265	1360.848182237947	1
0	4278	1364.851659696908	0
0	4284	1366.029077561812	1
0	4292	1368.644023166161	0
0	4301	1371.477724950069	1
0	4311	1374.303322745028	0
0	4322	1377.399552257506	1
0	4337	1381.453949632596	0
0	4343	1382.601165428532	1
0	4348	1384.38995363925	0
0	4353	1385.772080050089	0
0	4361	1388.439389096813	1
0	4376	1393.503411162186	1
0	4383	1396.0931518894	0
0	4388	1398.119756373002	0
0	4395	1399.076533915016	1
0	4396	1399.152065787586	0
0	4405	1403.298084930175	0
0	4410	1404.32466397179	1
0	4421	1409.517660961493	1
0	4438	1414.899436205399	1
0	4443	1416.457740999998	0
0	4455	1420.090019864502	1
0	4473	1425.457326931187	2
0	4475	1425.571097537532	1
0	4479	1426.200785441446	0
0	4493	1430.795008367865	1
0	4504	1434.727904711973	0
0	4511	1436.583072380169	1
0	4518	1438.542809177895	0
0	4522	1439.948547616491	0
0	4528	1442.257454524056	1
0	4542	1447.789089463658	1
0	4552	1450.37973632315	0
0	4563	1452.822774872423	1
0	4571	1455.66379364697	0
0	4582	1457.869043304126	1
0	4596	1462.788911031332	0
0	4600	1462.897387828685	1
0	4620	1467.997632765684	2
0	4632	1471.188587134827	1
0	4643	1473.469518286183	2
0	4654	1477.398061647087	0
0	4663	1479.244844465989	1
0	4664	1479.321846322628	0
0	4681	1484.860807260971	1
0	4685	1486.099080174003	1
0	4690	1487.622130710987	0
0	4692	1487.841086790904	0
0	4701	1490.659238774336	1
0	4710	1494.453040324624	0
0	4717	1495.69198547933	1
0	4730	1500.750398777665	1
0	4749	1506.321405615432	2
0	4752	1507.33734426392	0
0	4766	1511.649891732035	1
0	4778	1516.022732385559	1
0	4783	1516.800833190217	0
0	4788	1517.581113569446	1
0	4794	1519.133965486317	0
0	4802	1521.876911422477	0
0	4808	1523.115132536281	1
0	4812	1524.201569421576	0
0	4818	1526.461729662384	0
0	4825	1528.390005487258	1
0	4840	1534.140904253822	1
0	4856	1539.45780104609	1
0	4875	1545.32563641412	2
0	4878	1545.89158438927	1
0	4887	1547.89407769277	0
0	4890	1549.12049989671	0
0	4897	1550.525625192335	1
0	4903	1553.045483840173	0
0	4910	1555.609518576188	1
0	4926	1561.053811129889	1
0	4931	1562.943671206835	0
0	4933	1563.17698511447	0
0	4939	1565.365286989261	0
0	4941	1566.565983183806	0
0	4945	1566.685565128698	1
0	4951	1572.642023847912	1
0	4952	1572.846841550906	0
0	4959	1577.879883168273	1
0	4971	1583.495340104223	1
0	4982	1588.416589047302	0
0	4986	1588.895675186076	1
0	5003	1594.756041841124	1
0	5011	1596.814096621595	0
0	5023	1599.773903952454	1
0	5024	1600.21386337188	0
0	5036	1603.913564826952	0
0	5038	1604.242829822478	0
0	5043	1605.485281126815	1
0	5056	1610.847041372218	1
0	5070	1615.982731989826	1
0	5091	1621.658774114222	2
0	5096	1622.493286472404	0
0	5104	1624.877221959533	0
0	5110	1627.274140236675	1
0	5115	1629.151802322485	1
0	5126	1632.817573756687	1
0	5132	1634.908316523542	0
0	5144	1638.18932254171	1
0	5164	1643.35943037156	2
0	5168	1644.737548867716	0
0	5182	1649.080439276537	1
0	5186	1650.70660122636	0
0	5193	1652.348054504262	0
0	5200	1654.607736709537	1
0	5217	1660.377558787363	1
0	5218	1661.315729343342	1
0	5222	1661.723985054423	0
0	5226	1662.963246584647	0
0	5234	1665.640125064189	1
0	5241	1668.414413943313	0
0	5249	1671.172962184074	1
0	5263	1676.718489794303	1
0	5285	1682.429093150199	2
0	5301	1686.972766764705	1
0	5307	1688.203927047095	2
0	5316	1690.498935886784	0
0	5330	1694.109875537465	1
0	5334	1695.370211901969	0
0	5347	1699.177618333148	1
0	5355	1702.228477009232	0
0	5366	1704.295717102951	1
0	5386	1710.196292265794	2
0	5392	1712.080898513446	0
0	5397	1713.425972715498	1
0	5406	1715.623369585966	1
0	5422	1720.797582751033	1
0	5428	1721.535461123345	2
0	5437	1724.279813646695	0
0	5449	1726.929186427977	1
0	5470	1732.606270144472	2
0	5487	1737.832189185672	1
0	5491	1737.913805753702	2
0	5495	1739.488253677973	0
0	5504	1743.022865910562	1
0	5508	1743.075073823111	1
0	5528	1749.012398330971	2
0	5530	1749.265483746433	0
0	5533	1749.753744581844	1
0	5549	1754.405132902564	1
0	5552	1755.349118936935	0
0	5567	1759.568725742876	1
0	5580	1764.041937104787	1
0	5585	1764.780420857492	2
0	5606	1770.117723690123	2
0	5618	1773.920113608017	0
0	5621	1774.591798480612	1
0	5624	1775.916692137381	0
0	5628	1776.006321989475	1
0	5630	1776.58696776548	0
0	5643	1781.284272151776	1
0	5655	1786.106356659449	1
0	5659	1786.889171345868	1
0	5677	1791.923555739001	2
0	5684	1794.445263804992	0
0	5686	1794.683308791962	0
0	5689	1795.04796993035	1
0	5696	1797.596579918182	1
0	5712	1803.281469113436	1
0	5731	1808.450847467184	2
0	5735	1809.515242820383	0
0	5741	1811.511456433811	0
0	5748	1813.958835582491	1
0	5761	1818.819250900542	0
0	5766	1819.133995609367	1
0	5778	1824.019529337425	1
0	5784	1824.967359045297	1
0	5803	1830.653703949424	2
0	5815	1833.812631147805	0
0	5826	1836.341326455595	1
0	5840	1840.340869358633	0
0	5845	1841.811787987486	0
0	5849	1842.19448504528	1
0	5867	1847.892024274924	1
0	5883	1852.927045547996	1
0	5889	1853.420545549373	2
0	5894	1855.357784696634	0
0	5907	1859.165645159091	1
0	5927	1865.104952212432	2
0	5935	1867.436154669624	0
0	5940	1868.561250956856	1
0	5944	1869.866971473569	0
0	5948	1870.1189540024	1
0	5959	1874.464240986513	0
0	5964	1875.258780024721	1
0	5979	1880.511822686306	1
0	5983	1882.081156710522	1
0	5999	1886.364447833746	2
0	6003	1887.679728827797	0
0	6015	1891.334279986921	0
0	6019	1891.916162941846	1
0	6036	1897.703837497401	1
0	6055	1902.82582649799	2
0	6067	1906.204969866677	1
0	6076	1908.397077360317	0
0	6081	1908.605125502925	1
0	6104	1914.503842821587	2
0	6108	1915.639214444913	1
0	6122	1919.1345657555	0
0	6128	1920.315710057514	1
0	6137	1922.619697719473	0
0	6149	1925.896987308292	1
0	6170	1931.875430457769	2
0	6178	1933.983182853912	1
0	6182	1934.593801607039	0
0	6191	1936.918851363948	1
0	6198	1939.091398992352	0
0	6210	1942.23145757407	1
0	6231	1947.934870337379	2
0	6237	1949.83339241765	0
0	6243	1951.848418371412	1
0	6250	1953.358315623143	1
0	6269	1958.518355788208	2
0	6276	1960.60892011098	0
0	6288	1963.554273638186	1
0	6309	1968.99975565822	2
0	6325	1973.772897238618	1
0	6331	1974.206556036613	2
0	6336	1975.590842290908	0
0	6338	1976.04339729681	1
0	6345	1978.298177042752	1
0	6350	1979.285717161383	1
0	6373	1985.245327604712	2
0	6389	1990.255705641007	1
0	6395	1991.111801449453	2
0	6416	1996.132798962771	2
0	6432	2001.623186381657	1
0	6437	2002.130243136791	2
0	6442	2003.08841200791	1
0	6450	2005.000204148597	0
0	6459	2007.407048303412	1
0	6470	2010.831098997861	0
0	6480	2013.053910217957	1
0	6489	2015.969508794147	0
0	6500	2018.987433738086	1
0	6501	2019.319284947829	1
0	6522	2024.548910483962	2
0	6543	2029.830462497205	2
0	6544	2030.220702772971	1
0	6549	2031.102014141163	1
0	6566	2034.957670852786	2
0	6586	2039.997763877047	2
0	6592	2041.829013760439	1
0	6598	2043.363311656061	1
0	6606	2045.417558744791	0
0	6610	2045.587632883351	1
0	6625	2049.507356160097	0
0	6632	2051.409369983256	1
0	6649	2056.569951778522	2
0	6665	2061.683621262445	1
0	6669	2061.974618323857	2
0	6687	2067.013405108137	2
0	6689	2067.266313979058	1
0	6710	2072.305253047274	2
0	6723	2076.010746451106	0
0	6733	2077.957050594978	1
0	6751	2083.098648031021	2
0	6753	2083.703081104217	1
0	6761	2085.393997976683	1
0	6770	2087.950517590171	1
0	6774	2088.26393379994	2
0	6799	2093.746603094985	2
0	6815	2098.627741419483	1
0	6822	2099.489352897055	2
0	6843	2105.475752102224	2
0	6847	2106.540731068596	1
0	6849	2107.379574715291	1
0	6857	2109.596041855179	1
0	6866	2111.098000911776	2
0	6887	2117.061232190592	2
0	6890	2118.11140648393	0
0	6896	2119.697664228164	1
0	6909	2122.854756395811	1
0	6913	2123.726078223208	1
0	6925	2127.504159204674	0
0	6930	2128.398531351018	1
0	6952	2134.336406571803	2
0	6965	2138.757399804558	1
0	6972	2139.800236478926	2
0	6994	2145.584409523768	2
0	7011	2150.456884329794	1
0	7015	2151.451503202797	2
0	7019	2152.007512014023	0
0	7033	2157.061240680761	1
0	7044	2160.288056936943	1
0	7053	2162.597524983821	2
0	7060	2165.2219330806	1
0	7068	2167.413561346838	1
0	7073	2168.247255834763	2
0	7079	2169.707995492284	0
0	7092	2173.804680585873	1
0	7093	2173.923214275745	1
0	7116	2179.471032805287	2
0	7117	2179.801062624449	1
0	7138	2185.24878148922	2
0	7153	2189.607247949118	1
0	7161	2190.705252439261	2
0	7166	2192.148675989374	0
0	7176	2195.877032384521	1
0	7189	2200.498715255532	1
0	7196	2201.265931878251	2
0	7197	2201.271250339354	0
0	7207	2204.92806408101	1
0	7215	2206.866955908959	1
0	7232	2211.653105007614	1
0	7238	2212.439270478918	2
0	7251	2216.242757724376	0
0	7257	2217.601266447582	0
0	7261	2217.78824586306	1
0	7264	2219.499304721139	1
0	7276	2223.313138755278	0
0	7280	2223.373043085227	1
0	7290	2227.469273105627	0
0	7295	2228.515241484169	1
0	7312	2234.437322364433	1
0	7322	2237.016326008027	0
0	7330	2239.60949167913	1
0	7338	2241.54514778104	0
0	7349	2245.191096721461	1
0	7352	2245.780309088655	0
0	7365	2250.454162383463	1
0	7367	2251.505848450713	0
0	7372	2252.669187384203	0
0	7380	2255.5486437115	1
0	7382	2257.031768170895	0
0	7394	2261.394329673622	1
0	7410	2266.975353540166	1
0	7414	2267.980979724332	0
0	7427	2272.421789059194	1
0	7446	2277.89319815255	2
0	7464	2282.913532179326	2
0	7466	2283.180621414458	0
0	7474	2286.359937846672	0
0	7481	2288.060507900093	1
0	7485	2289.889480166265	1
0	7498	2293.509548176324	1
0	7500	2293.682041498262	1
0	7522	2299.480564061563	2
0	7529	2301.77869927372	0
0	7536	2304.603747883356	0
0	7541	2305.151306432217	1
0	7554	2310.426234750321	1
0	7574	2316.346872598875	2
0	7586	2319.698856498476	0
0	7591	2321.156643490086	1
0	7595	2321.427479444548	1
0	7614	2326.702335718564	2
0	7618	2327.69685547602	0
0	7626	2329.858975225491	1
0	7636	2332.184391265746	1
0	7656	2337.99030875276	2
0	7659	2339.439128628943	1
0	7664	2340.32799339668	0
0	7668	2341.762584037279	1
0	7676	2343.586812272213	1
0	7681	2345.577710809551	0
0	7696	2349.021837777935	1
0	7718	2354.884749392059	2
0	7737	2359.202666640061	1
0	7743	2359.904599563463	2
0	7748	2360.986566129268	0
0	7756	2363.906277239101	0
0	7763	2365.491422832489	1
0	7772	2369.081304562988	1
0	7779	2371.23656997598	1
0	7801	2377.011909321661	2
0	7804	2378.092130458111	1
0	7807	2378.490093403971	0
0	7820	2382.381202388566	0
0	7824	2382.895500931202	1
0	7840	2388.014624743036	1
0	7860	2393.600398176827	2
0	7883	2399.189546810708	2
0	7894	2402.838246020615	1
0	7896	2402.990245331441	0
0	7898	2403.636538624191	0
0	7901	2404.102229506137	1
0	7907	2405.174074847962	1
0	7924	2411.073125483015	1
0	7932	2412.802498183458	0
0	7936	2414.240740320888	0
0	7944	2416.641636065918	1
0	7959	2422.091868737492	1
0	7962	2422.963245736446	0
0	7979	2428.051489750634	1
0	7989	2431.945455850466	0
0	7998	2433.728798987589	1
0	8017	2439.571053098899	2
0	8018	2439.659750373466	0
0	8020	2440.111163592908	1
0	8037	2445.495450961183	1
0	8056	2451.268686278735	2
0	8075	2456.864316948934	2
0	8083	2459.034005927981	1
0	8085	2459.264735550399	0
0	8089	2460.452071689897	0
0	8096	2462.749507484969	1
0	8112	2468.688102448138	1
0	8117	2470.040845451655	1
0	8137	2474.496916359302	2
0	8160	2480.018420175428	2
0	8165	2481.931200835166	1
0	8179	2485.53678753624	2
0	8199	2491.155495717202	2
0	8200	2491.289164653875	0
0	8202	2491.6563111581	1
0	8208	2493.615153867415	1
0	8217	2496.296819554654	1
0	8223	2498.014772518783	1
0	8237	2501.60103387154	2
0	8246	2505.029685409169	0
0	8254	2507.274274744571	1
0	8257	2507.586705607491	0
0	8273	2512.276344578958	1
0	8278	2513.655733953591	0
0	8280	2513.893061035791	0
0	8291	2518.084713067173	1
0	8292	2518.547745225613	0
0	8300	2522.036733905794	1
0	8307	2523.68245839096	1
0	8310	2525.434105294067	0
0	8320	2528.998145093223	1
0	8336	2534.257842161473	1
0	8337	2534.975927469449	0
0	8345	2537.609725552391	0
0	8352	2539.533155323485	1
0	8357	2542.38012362168	0
0	8364	2545.042207720703	1
0	8366	2545.307652911302	0
0	8379	2550.536058149081	1
0	8387	2554.533006377649	0
0	8392	2555.645522792138	1
0	8408	2561.33104256146	1
0	8427	2566.691399841815	2
0	8446	2572.12082652097	2
0	8463	2577.15617387487	2
0	8467	2578.650767149998	1
0	8469	2578.661619101315	0
0	8471	2578.941403823688	1
0	8477	2580.995959829436	1
0	8486	2583.009286016239	1
0	8499	2587.006285315862	0
0	8506	2588.138104650904	1
0	8514	2590.754267680007	0
0	8526	2593.808341603041	1
0	8532	2595.230086955722	0
0	8547	2599.49880818861	1
0	8570	2604.66331624404	2
0	8577	2606.800839359417	0
0	8582	2607.525651847843	0
0	8588	2609.877129587824	1
0	8592	2610.958763730377	1
0	8595	2612.737087953616	0
0	8603	2615.226517442395	1
0	8613	2619.17520216819	0
0	8620	2621.20744137025	1
0	8633	2626.321289204075	1
0	8645	2630.402609560771	0
0	8652	2631.950111027588	1
0	8665	2635.605440346422	0
0	8671	2637.123356755605	0
0	8675	2637.136536707417	1
0	8684	2641.360274320947	0
0	8692	2642.77275168804	1
0	8693	2642.828841994063	0
0	8702	2647.694088344825	0
0	8707	2648.611243842882	1
0	8717	2654.217100740425	0
0	8721	2654.394065012238	1
0	8725	2657.223872344835	0
0	8730	2659.555154476562	1
0	8741	2664.9257429524	1
0	8750	2668.645132574035	0
0	8753	2669.963301002644	0
0	8758	2670.710784464157	1
0	8770	2676.36156840065	1
0	8786	2681.492405228098	1
0	8787	2682.001455363947	0
0	8797	2685.6213785218	0
0	8803	2686.648128582179	1
0	8817	2691.774036706905	1
0	8828	2695.21892176733	0
0	8835	2696.848604041166	1
0	8837	2697.301499928594	0
0	8854	2702.447544238079	1
0	8879	2708.378524641521	2
0	8882	2709.735424100436	0
0	8885	2709.91356004217	0
0	8887	2710.167747816319	0
0	8894	2713.553634540891	1
0	8901	2718.622206003187	0
0	8905	2718.899800206316	1
0	8916	2724.500185653814	1
0	8925	2728.446421878427	1
0	8927	2728.496713679996	0
0	8933	2729.536024643821	1
0	8943	2733.725535357502	0
0	8950	2735.352119268165	1
0	8952	2736.203948427705	0
0	8954	2736.920224170097	0
0	8961	2740.532954869573	1
0	8973	2745.866854767562	1
0	8979	2748.268071619691	0
0	8984	2751.084440750899	0
0	8988	2751.127399218516	1
0	9002	2756.672599874219	1
0	9014	2761.927278586445	1
0	9035	2767.372939596433	2
0	9052	2772.477740994202	1
0	9056	2772.720146446038	2
0	9074	2778.12115838613	2
0	9088	2782.288291759919	0
0	9092	2783.770460646962	1
0	9096	2783.836367203171	1
0	9101	2785.294742589015	0
0	9116	2789.796279823423	1
0	9124	2792.322617442362	0
0	9134	2795.215483846857	1
0	9151	2800.957089797609	2
0	9154	2801.473374829173	1
0	9176	2806.880552730538	2
0	9188	2811.327684077917	0
0	9196	2812.627794462737	1
0	9198	2813.703865003786	0
0	9208	2816.783366155709	0
0	9214	2818.576790219188	1
0	9218	2821.313900184137	1
0	9224	2823.093046397804	0
0	9230	2824.218225067497	1
0	9234	2826.877654260501	1
0	9247	2830.158756112695	1
0	9250	2831.476939137342	0
0	9255	2832.17873006548	0
0	9260	2834.935313378942	0
0	9265	2835.847676469494	1
0	9268	2837.800842549204	0
0	9275	2841.412982873401	1
0	9283	2846.266323449338	0
0	9288	2846.780088891989	1
0	9298	2851.999214519529	1
0	9313	2857.074912110592	1
0	9315	2857.831875485384	0
0	9330	2862.281962517897	1
0	9345	2866.901467850448	0
0	9352	2868.228280555705	1
0	9360	2870.419706472674	0
0	9371	2873.595007157667	1
0	9382	2877.221134363689	0
0	9390	2879.397747999538	1
0	9391	2879.461247685963	0
0	9399	2882.009101031247	0
0	9407	2885.012682692396	1
0	9413	2888.135540457691	0
0	9421	2890.852654716481	1
0	9433	2895.719142795441	0
0	9437	2896.480601587115	1
0	9450	2901.314640785584	0
0	9457	2902.449516943205	1
0	9465	2906.498381848113	0
0	9472	2907.77979643039	1
0	9473	2908.140328969356	0
0	9478	2910.047622071479	0
0	9484	2913.166831043796	1
0	9489	2916.095761471676	0
0	9495	2918.428081029109	1
0	9505	2923.620868325015	1
0	9520	2928.70277918411	1
0	9526	2930.558292570655	0
0	9534	2934.218352414564	0
0	9538	2934.277385936133	1
0	9553	2940.095135448282	1
0	9559	2942.066633535215	0
0	9572	2945.689415508197	1
0	9573	2946.007272174598	0
0	9576	2946.207226537415	0
0	9580	2947.725384906066	0
0	9582	2948.277786149425	0
0	9586	2951.378335178378	1
0	9594	2956.805600672741	1
0	9605	2961.955823273877	1
0	9621	2967.293252083952	1
0	9640	2972.870622484027	2
0	9650	2975.563252484906	1
0	9660	2978.037707452909	0
0	9662	2978.214332274173	0
0	9667	2978.524010996348	1
0	9673	2981.230599889196	0
0	9681	2983.792799576665	1
0	9694	2988.807648316272	1
0	9715	2994.631958646248	2
0	9731	2999.214067976118	0
0	9737	3000.305300283027	1
0	9752	3004.741700121331	0
0	9754	3004.918341197787	1
0	9760	3005.602465708288	1
0	9776	3009.845232907463	0
0	9781	3010.764720378923	1
0	9783	3011.220766091267	0
0	9789	3012.586440689411	0
0	9798	3016.225822478547	1
0	9814	3022.157922246275	1
0	9815	3022.330099985251	0
0	9822	3024.898780971662	0
0	9830	3027.510371483877	1
0	9847	3032.741837990019	1
0	9866	3038.269630007227	2
0	9871	3039.350905427375	1
0	9889	3043.567908298005	2
0	9893	3044.991861314876	0