version 3
run General-2-20240430-20:30:43-5480
attr configname General
attr datetime 20240430-20:30:43
attr datetimef 20240430-203043
attr experiment General
attr inifile omnetpp.ini
attr iterationvars $0=true
attr iterationvarsd true
attr iterationvarsf true-
attr measurement $0=true
attr network Supermarket
attr processid 5480
attr repetition 2
attr replication #2
attr resultdir results
attr runnumber 2
attr seedset 2
config network Supermarket
config repeat 10
config num-rngs 10
config **.use_random_strategy true

vector 0 Supermarket queueSizeOverTime:vector ETV
attr recordingmode vector
attr source updateQueue
attr title queueSizeOverTime
vector 1 Supermarket customerWaitingTime:vector ETV
attr interpolationmode none
attr recordingmode vector
attr source customerFinished
attr title "cust waiting time"
0	7	5.870124132372	1
0	14	11.757535837125	2
0	15	12.160334077314	1
0	22	17.379024740774	1
0	35	23.070782317081	1
0	37	24.024333140462	0
0	42	25.433451957535	0
0	48	28.743647973751	2
0	55	34.401599439093	1
0	64	39.673915839055	3
0	77	45.409183174138	2
0	81	47.4314345388	2
0	91	51.259510809555	1
0	105	56.575035023735	3
0	117	61.402594119892	0
0	122	61.691728760255	4
0	125	63.565912591057	1
0	134	67.267218745779	1
0	147	72.407112795044	0
0	152	72.539270007983	2
0	158	77.070060303904	3
0	164	78.526384397177	4
0	176	83.711307159392	1
0	177	84.333056686449	3
0	181	85.609987014901	1
0	190	89.147702249934	2
0	194	89.203688197071	2
0	209	94.45666229073	1
0	229	99.917701688828	3
0	231	100.271294328267	0
0	241	103.983943586583	1
0	245	105.095261229321	2
0	249	105.237161637517	1
0	268	110.887947551674	3
0	278	113.197144409877	0
0	288	116.129432330374	2
0	306	121.876564275474	4
0	314	124.630582946819	3
0	316	125.114288920769	1
0	323	127.205770688132	4
0	324	127.554002111308	0
0	338	132.469399516937	5
0	351	138.09625295736	6
0	354	139.548810286912	5
0	356	139.753237226512	0
0	363	143.145295104944	1
0	372	148.474987553664	4
0	376	148.540138326586	5
0	389	154.336704397575	6
0	404	159.63203941146	7
0	407	162.771182486206	0
0	410	164.869377369871	6
0	414	165.457862989047	7
0	416	166.829845205294	6
0	422	170.594417875867	7
0	424	171.951453490411	6
0	430	176.003061309691	1
0	441	181.347788780231	7
0	448	186.009093516384	6
0	454	187.31566560385	2
0	461	191.108252183535	1
0	468	192.962232893335	1
0	481	198.122707610254	7
0	489	201.232105296332	6
0	500	203.623965449401	2
0	516	209.471068284244	3
0	521	211.378029065674	2
0	533	215.091498885073	2
0	538	217.068398364588	1
0	550	220.426834575135	1
0	555	221.623622275184	5
0	561	223.777985852446	1
0	572	225.806640129072	2
0	593	231.363868987189	6
0	600	233.08259446628	1
0	616	236.764008845902	2
0	630	241.431676514913	1
0	639	242.708579330939	7
0	654	247.47627801168	6
0	658	247.756511670771	7
0	668	250.984902261284	6
0	670	251.321229083347	0
0	672	251.499325917804	0
0	678	253.101263303311	7
0	679	253.233132953524	0
0	687	258.297741597985	1
0	698	263.566032232252	1
0	708	267.617766851093	0
0	715	269.118750288851	1
0	727	274.125545386684	6
0	731	274.764830720612	2
0	742	278.726438099396	5
0	744	278.99796591187	0
0	751	280.620375058848	1
0	754	281.921945624285	1
0	766	285.785812802381	6
0	780	291.069837801159	1
0	803	296.6730484406	2
0	820	302.428572035395	7
0	843	307.639411350247	2
0	847	308.730521086837	1
0	851	308.862555138411	6
0	856	310.328751799767	1
0	866	312.760855114554	2
0	877	315.787945865654	0
0	888	318.541197516723	3
0	893	320.558390576857	2
0	896	321.712300283136	0
0	899	322.336830035543	5
0	905	324.465616529575	3
0	915	329.642106228043	1
0	932	335.064783125884	1
0	944	338.62559069181	0
0	952	340.523539185758	4
0	959	342.633700662174	3
0	968	345.877885143739	4
0	985	351.567768782844	1
0	1000	355.384351838487	4
0	1008	356.801933771466	5
0	1017	359.267865600877	4
0	1026	361.645899254715	0
0	1030	362.173514744966	1
0	1038	363.605497372451	3
0	1056	367.974887284917	2
0	1059	368.532907490852	0
0	1073	373.571386212359	3
0	1077	373.637692129706	3
0	1093	379.203011983075	1
0	1112	384.668224318187	4
0	1119	386.679707720284	2
0	1122	387.456455635724	3
0	1134	389.675745316549	3
0	1147	393.843563103812	2
0	1156	395.03074076376	4
0	1164	397.649711372913	0
0	1178	401.002851848957	1
0	1202	406.999452705496	2
0	1223	412.899225321366	3
0	1226	413.273411001664	3
0	1234	415.313310523742	2
0	1238	416.275659279657	1
0	1241	416.658684900492	1
0	1243	416.804206977018	2
0	1252	418.607686493081	2
0	1259	420.73340579366	1
0	1275	424.580189806177	4
0	1280	425.836319150175	3
0	1294	429.62503732578	2
0	1317	435.069412653568	3
0	1327	438.158916472808	1
0	1338	440.630892253482	4
0	1350	444.058454518095	2
0	1355	445.381004213004	0
0	1360	446.35753322905	2
0	1365	447.978108476386	1
0	1370	449.272396211051	0
0	1378	451.752078307095	3
0	1381	453.250564949695	3
0	1392	457.69747422333	4
0	1396	459.74542199214	2
0	1402	461.55122734128	1
0	1408	463.203707377893	1
0	1410	463.336984675031	3
0	1413	464.10446111822	0
0	1423	468.840194318212	1
0	1435	473.802090799553	0
0	1441	474.724860809512	1
0	1456	479.801897081315	4
0	1473	484.981814395172	1
0	1474	485.299012892416	0
0	1477	485.958794495793	3
0	1492	490.71870177216	2
0	1507	495.949455901283	1
0	1512	497.637596768446	0
0	1519	500.247846529471	0
0	1525	501.177892935231	3
0	1538	506.653049273418	4
0	1545	510.519265180802	3
0	1550	512.143624513412	4
0	1551	512.265716039229	3
0	1560	516.407949196406	2
0	1564	517.419558300639	1
0	1578	522.550733606101	3
0	1584	524.258054956331	2
0	1586	524.579676965835	0
0	1595	528.287204636729	4
0	1596	528.728057650038	1
0	1608	534.262873306407	2
0	1622	540.244276849788	3
0	1625	542.259004984171	2
0	1627	542.695134036822	3
0	1634	545.748107776514	3
0	1646	551.125936774074	1
0	1647	551.236612617158	2
0	1651	552.302103050987	0
0	1660	556.744002799739	3
0	1661	556.890307735183	2
0	1676	562.560440532167	3
0	1688	567.651995897761	4
0	1689	568.002399622234	3
0	1691	568.432346235374	2
0	1704	573.516365147198	1
0	1721	578.827468463688	1
0	1725	580.077418816155	1
0	1743	584.386467990701	2
0	1759	588.986148275088	2
0	1761	589.573175803638	1
0	1767	589.902910675158	2
0	1783	593.744314173472	1
0	1792	595.76493831049	2
0	1808	601.003682274141	0
0	1814	601.45446566935	1
0	1818	602.680877059234	0
0	1825	604.405483004643	1
0	1834	606.797977169047	2
0	1851	612.74929165887	3
0	1857	614.970645736908	0
0	1859	615.1567213888	1
0	1865	617.383376110347	2
0	1871	618.062853037383	1
0	1888	624.021174168683	3
0	1905	629.48901338084	1
0	1915	632.60237506626	2
0	1925	634.643617466561	2
0	1942	640.304203503768	3
0	1952	643.443452303409	0
0	1955	644.058951520945	1
0	1964	646.168094665746	2
0	1966	646.504257137074	1
0	1975	649.531724674164	0
0	1981	651.3716858672	1
0	1987	654.367778212416	2
0	1996	656.425782213689	0
0	2000	657.293841591806	1
0	2004	658.387930908591	0
0	2016	663.131813239775	3
0	2017	663.522332647584	2
0	2023	666.013831755264	1
0	2031	668.547696833735	1
0	2032	669.244008060898	0
0	2034	669.386747529964	0
0	2042	674.520180752737	1
0	2054	679.983457165308	2
0	2063	685.631590400942	1
0	2067	685.826949859507	1
0	2083	690.844598024621	2
0	2097	695.893937181452	2
0	2108	700.479538217541	0
0	2113	701.200175017588	1
0	2127	706.155688737872	1
0	2132	707.083226604158	2
0	2147	712.870369704677	2
0	2156	716.02433293092	1
0	2166	718.689582273135	3
0	2169	719.510277859869	2
0	2184	724.015980998989	3
0	2199	729.237100163711	3
0	2201	729.778525458886	2
0	2215	734.652263928441	3
0	2216	734.996913631334	2
0	2218	735.120318612786	2
0	2220	735.223159350925	0
0	2230	740.017139122126	1
0	2231	740.301633516912	1
0	2236	741.609477371563	0
0	2246	745.739029937893	1
0	2257	750.81454708183	0
0	2261	751.043286217613	3
0	2267	755.898462398564	2
0	2271	756.109897090359	3
0	2283	761.915568000874	1
0	2297	767.822967644319	2
0	2303	769.848096976061	0
0	2305	770.305246367473	2
0	2312	773.682214442411	3
0	2319	776.913581171427	1
0	2326	779.293422883845	1
0	2333	782.015924725105	2
0	2337	783.063967958331	1
0	2344	784.589846294609	2
0	2361	789.784171822949	1
0	2365	791.135506890953	1
0	2381	794.441381410817	0
0	2384	795.053512484654	0
0	2389	795.250733186493	1
0	2407	800.781651259402	2
0	2416	804.783192764387	0
0	2424	806.706497738838	3
0	2434	812.486760913052	0
0	2438	812.63153280318	1
0	2445	817.2733284249	2
0	2449	818.018036319178	1
0	2453	819.670252974846	0
0	2459	821.886044092014	1
0	2466	823.393050860849	1
0	2471	826.057102352966	0
0	2476	827.510500477047	0
0	2481	828.448013992983	1
0	2494	834.38496716833	2
0	2506	840.305595119719	1
0	2509	841.951394402077	1
0	2515	843.350328780365	0
0	2521	845.314995176394	1
0	2536	850.513003141156	1
0	2559	856.473281947665	2
0	2570	859.846222824419	1
0	2582	861.951864772245	2
0	2602	867.584798742786	2
0	2609	870.060218284027	1
0	2622	873.575156849345	3
0	2629	874.958240021371	0
0	2631	875.36534100294	2
0	2639	878.462630742233	0
0	2646	879.521773505259	1
0	2654	882.566176008552	0
0	2661	885.380575632678	2
0	2670	890.48380035046	1
0	2676	891.310453565327	3
0	2687	897.097765544547	2
0	2691	897.149666046027	3
0	2702	902.444612404333	1
0	2716	907.824988782407	2
0	2721	910.269272543261	0
0	2729	913.72569711553	4
0	2736	918.182761710838	3
0	2740	918.895036337199	4
0	2751	924.275242433185	3
0	2761	929.370786968386	1
0	2773	933.757574468853	2
0	2778	934.577672287589	1
0	2799	940.55878648092	5
0	2804	942.36590108916	4
0	2820	945.743044500937	3
0	2836	950.251953659696	2
0	2841	951.114141109985	3
0	2846	951.424953284906	3
0	2848	951.713468543956	2
0	2858	955.176735852728	0
0	2867	956.921069436241	2
0	2870	958.00229946594	1
0	2882	962.144013130572	2
0	2883	962.501120874777	1
0	2886	962.831517779501	2
0	2901	967.274477398023	3
0	2912	971.639537853887	2
0	2917	972.487307446543	1
0	2937	978.396502216812	3
0	2947	981.742943028337	0
0	2954	983.230913281093	2
0	2960	984.093836143613	2
0	2964	985.429580218278	1
0	2977	989.413672646973	2
0	2992	995.095638069091	3
0	3004	999.775958132584	1
0	3011	1000.732098027365	2
0	3019	1003.727075734061	1
0	3026	1006.502699163513	2
0	3030	1006.694342573639	1
0	3039	1010.140035792603	0
0	3048	1011.914583869278	2
0	3063	1017.669029022567	1
0	3068	1019.531129037616	1
0	3071	1019.614880787327	1
0	3082	1023.170431561419	0
0	3089	1023.649538019672	3
0	3105	1028.956444164272	1
0	3106	1029.383345076466	2
0	3127	1034.749074426014	2
0	3128	1034.765467154094	1
0	3146	1039.753472612472	3
0	3151	1041.237173456233	2
0	3160	1043.668086518535	0
0	3167	1045.147960854461	1
0	3187	1050.354910428403	2
0	3189	1050.626773043655	1
0	3208	1055.726732919924	2
0	3211	1056.487678936567	0
0	3221	1059.782791986015	1
0	3224	1060.92462598323	0
0	3231	1061.63561492553	1
0	3237	1064.108671075433	1
0	3245	1066.860720454016	0
0	3249	1066.931884172373	2
0	3259	1071.964014497586	1
0	3266	1074.73036870244	0
0	3273	1077.075772601646	1
0	3274	1077.363012788934	0
0	3277	1078.012424657239	1
0	3285	1082.211277851719	0
0	3289	1082.352401872632	1
0	3299	1087.612543358934	1
0	3313	1093.142123022583	2
0	3328	1098.717608792009	1
0	3343	1103.791434910382	0
0	3348	1104.193982186262	1
0	3351	1105.199092507713	1
0	3369	1109.241467237706	2
0	3377	1111.785872913549	0
0	3380	1112.379402262622	0
0	3387	1114.563333169558	1
0	3403	1120.230927125319	2
0	3406	1121.255993801867	1
0	3420	1125.494670287474	1
0	3424	1126.854372385191	1
0	3439	1131.071779886029	2
0	3455	1134.946837968544	0
0	3464	1136.733661622742	2
0	3466	1137.016292747111	1
0	3473	1139.295777741936	1
0	3486	1142.020884050291	2
0	3487	1142.854533987585	1
0	3503	1147.633482933046	1
0	3522	1152.949216140203	2
0	3525	1153.889022893273	1
0	3543	1158.823008758716	2
0	3563	1164.239867746832	2
0	3571	1166.652506649027	0
0	3576	1168.513668439117	1
0	3582	1169.807607667988	2
0	3586	1171.53158268635	1
0	3594	1174.091729280541	0
0	3600	1175.175135065105	2
0	3606	1178.882311836931	1
0	3612	1180.574529029897	3
0	3614	1181.42313870706	0
0	3616	1182.080608616698	2
0	3623	1186.28632613295	1
0	3634	1191.348814208761	1
0	3644	1195.782656198369	0
0	3651	1197.225853174461	3
0	3663	1203.056526176633	2
0	3670	1207.186466901333	1
0	3676	1208.432321715636	1
0	3677	1209.180772075079	2
0	3689	1213.042329303454	1
0	3693	1213.489434639459	2
0	3709	1219.398488418666	2
0	3721	1223.994827765738	1
0	3724	1224.473222169911	1
0	3729	1225.105493369513	2
0	3745	1230.983223190299	3
0	3749	1232.577725791025	2
0	3764	1236.826747003012	3
0	3773	1240.616173510675	2
0	3779	1241.963632983156	2
0	3783	1243.252380411373	0
0	3793	1247.28174778563	1
0	3802	1250.922000560912	1
0	3804	1251.154916707777	1
0	3812	1252.597903379007	2
0	3814	1253.448701779593	0
0	3817	1254.549713566551	0
0	3825	1258.369021224557	3
0	3833	1263.897498204839	1
0	3842	1268.811597496854	0
0	3846	1269.30798065709	1
0	3847	1270.054909727302	2
0	3856	1274.417337271153	1
0	3858	1275.196662251722	0
0	3870	1279.893536012621	3
0	3876	1282.965303927658	2
0	3883	1285.5623209083	2
0	3896	1291.533761939734	3
0	3907	1297.162040440833	4
0	3909	1298.124736629192	3
0	3914	1300.876385925804	1
0	3920	1302.56734275818	1
0	3935	1308.566758463626	2
0	3950	1314.116075769534	3
0	3959	1317.952690416946	2
0	3968	1319.863455435495	4
0	3983	1324.879198642449	3
0	3985	1325.167258898611	3
0	3992	1327.407825963339	2
0	4002	1330.092095541536	3
0	4013	1334.773979959662	0
0	4018	1335.122421978741	4
0	4030	1340.213564470877	1
0	4032	1340.611791606059	2
0	4049	1346.185389345746	2
0	4053	1347.472543997925	3
0	4055	1347.509182631272	1
0	4057	1348.163099988244	1
0	4059	1348.170364476509	0
0	4069	1351.814829916695	4
0	4079	1356.909371421208	5
0	4091	1362.496881780682	1
0	4107	1368.298617781374	2
0	4119	1373.064151733416	4
0	4124	1373.33653732529	5
0	4130	1375.795479922085	0
0	4139	1378.697988772999	1
0	4145	1381.35697677848	4
0	4149	1382.310097041659	1
0	4158	1384.275685857983	5
0	4171	1389.64288001042	2
0	4176	1391.038388544694	0
0	4188	1395.259808658391	1
0	4204	1401.182573429543	6
0	4219	1406.406303601574	7
0	4226	1408.98464998731	1
0	4228	1409.098586755108	6
0	4238	1411.940704598093	1
0	4245	1413.234900061974	0
0	4255	1416.83124252141	0
0	4260	1417.589961935767	7
0	4264	1419.859436728645	0
0	4270	1423.249174048892	8
0	4274	1427.216875104819	7
0	4278	1428.586223357125	8
0	4287	1434.437806786039	9
0	4294	1440.345230280888	1
0	4299	1443.921539601522	0
0	4305	1446.216232853244	1
0	4315	1451.524817957311	2
0	4317	1452.417947622835	8
0	4328	1457.154397555628	1
0	4345	1462.736444685376	9
0	4351	1465.016392044379	8
0	4363	1468.603464332177	1
0	4365	1469.416852107856	1
0	4384	1474.327391219792	9
0	4390	1476.322307088644	0
0	4399	1479.71338881075	0
0	4404	1480.208037919133	1
0	4408	1482.362041960709	8
0	4420	1485.515232677572	2
0	4435	1490.794715707889	3
0	4438	1492.488216296771	0
0	4450	1496.722834669985	9
0	4453	1498.3604440908	8
0	4462	1502.273896834348	1
0	4463	1502.909016888357	2
0	4469	1505.396647588703	7
0	4478	1507.886474772124	8
0	4486	1510.986193725726	7
0	4494	1513.253185966518	2
0	4498	1514.500487354468	1
0	4511	1519.210911852774	8
0	4525	1524.134768472986	1
0	4529	1524.248269253178	1
0	4549	1529.651157234097	2
0	4572	1535.463577713352	3
0	4573	1535.550407768112	2
0	4575	1536.418955980683	0
0	4584	1539.691427893006	0
0	4590	1541.428618507693	9
0	4591	1541.739337758398	8
0	4603	1546.984947365942	3
0	4615	1552.62520515197	9
0	4623	1556.913815543525	8
0	4625	1557.011813997524	2
0	4631	1558.114516192349	1
0	4632	1558.381381165702	1
0	4638	1560.044192488422	0
0	4649	1563.567615255947	2
0	4654	1565.994164746139	1
0	4661	1569.251934021014	9
0	4663	1570.422270714772	0
0	4671	1575.063381446527	10
0	4680	1580.949000413065	11
0	4684	1585.361331611758	10
0	4689	1586.247185853078	1
0	4702	1592.174852549798	11
0	4712	1597.306451258949	12
0	4714	1597.920346186499	11
0	4720	1600.701651883547	10
0	4727	1603.022560891463	1
0	4744	1608.033360745758	2
0	4747	1609.73425728467	1
0	4760	1613.05940976087	2
0	4775	1618.434686615132	3
0	4776	1619.025729371699	0
0	4788	1623.4629190329	4
0	4789	1623.519700735113	9
0	4801	1629.1615273098	1
0	4802	1629.710490755624	8
0	4816	1634.776156709996	1
0	4818	1635.303463545396	3
0	4825	1636.896812738037	2
0	4833	1639.33485305321	0
0	4841	1640.441087049899	2
0	4849	1644.230290865878	7
0	4857	1646.000683105552	1
0	4865	1648.222963763983	1
0	4878	1651.069182396635	2
0	4899	1656.352433151332	1
0	4903	1656.677983576666	2
0	4911	1658.933117298761	1
0	4928	1662.589139010759	3
0	4929	1663.068545477004	6
0	4950	1667.681479968365	2
0	4967	1673.005211886137	1
0	4972	1673.335118811579	2
0	4977	1674.444510750124	2
0	4979	1674.912460378493	5
0	4996	1678.966084835121	6
0	5009	1683.346006665497	0
0	5015	1684.573050117122	3
0	5034	1690.314258036438	4
0	5038	1691.603244065423	3
0	5042	1693.328151664118	5
0	5052	1695.766747680261	1
0	5063	1699.713662669067	1
0	5073	1701.485198816053	2
0	5087	1706.163618546095	2
0	5094	1706.764844021063	2
0	5097	1707.435391786164	4
0	5114	1712.130355670817	3
0	5118	1713.147268913919	2
0	5130	1717.086608243292	1
0	5135	1717.327017371312	2
0	5156	1723.149092379494	3
0	5176	1729.013126368637	3
0	5181	1729.995821809632	1
0	5188	1731.490192913104	0
0	5199	1734.573827556803	4
0	5205	1737.253353498179	3
0	5212	1739.446420361064	3
0	5216	1739.588463791882	1
0	5236	1745.587779926139	4
0	5242	1747.315620986163	2
0	5253	1750.528394632158	1
0	5255	1750.868056536538	2
0	5259	1751.075257814027	5
0	5260	1751.152356299339	0
0	5272	1756.163951583564	4
0	5278	1756.711459874877	3
0	5286	1759.574645820077	2
0	5292	1761.718926527193	0
0	5297	1762.190518556399	1
0	5309	1767.639065154832	2
0	5325	1773.158839346379	3
0	5331	1775.511358745635	3
0	5342	1778.630207441518	4
0	5346	1780.065549984231	3
0	5352	1781.827758641101	2
0	5355	1782.929234061044	1
0	5362	1784.035008294046	1
0	5378	1789.22318579513	3
0	5400	1794.726572088901	2
0	5418	1799.898731594443	4
0	5424	1801.088049250425	1
0	5426	1801.714029255795	2
0	5444	1805.711618047677	5
0	5448	1806.632472525818	4
0	5465	1811.39027060266	2
0	5466	1811.678970058802	1
0	5484	1816.626611158718	3
0	5488	1816.909449604343	4
0	5502	1821.485203410619	0
0	5506	1822.051814862528	3
0	5510	1822.587543533652	2
0	5511	1823.071338119808	1
0	5526	1828.28170397715	4
0	5535	1832.509460775767	1
0	5543	1834.06125165406	5
0	5559	1839.659518176693	1
0	5577	1844.340874374031	4
0	5585	1845.486950816357	2
0	5588	1846.821176095059	0
0	5590	1846.869665963579	0
0	5597	1849.727677692079	1
0	5602	1851.245054743489	5
0	5614	1857.104281009877	2
0	5619	1860.824312994724	4
0	5627	1862.548240980137	3
0	5628	1863.025189334412	3
0	5639	1867.715793038955	1
0	5644	1870.278891672614	2
0	5649	1871.6053594735	2
0	5656	1873.431221264884	1
0	5675	1878.767899878327	2
0	5695	1883.896395242311	3
0	5719	1889.149374410048	2
0	5729	1892.006869427398	1
0	5736	1894.634877839243	1
0	5740	1894.750751405492	2
0	5749	1896.756478423373	0
0	5751	1896.835813283341	1
0	5758	1899.082228127403	2
0	5761	1899.723400892343	0
0	5765	1899.788850025743	3
0	5777	1905.758220298219	4
0	5789	1910.965906375091	3
0	5800	1916.226700954608	5
0	5810	1921.66256681993	1
0	5812	1922.169710379558	2
0	5827	1926.73114106106	6
0	5836	1930.318928242779	5
0	5838	1930.545934216122	0
0	5840	1930.716104074496	1
0	5845	1931.974585736872	1
0	5860	1937.403755671813	6
0	5874	1942.83086000872	5
0	5880	1943.013058107815	2
0	5885	1946.444318901284	0
0	5894	1948.985825072046	3
0	5895	1949.260731926186	2
0	5900	1951.77179200039	1
0	5910	1954.981292216576	2
0	5923	1960.650981257906	3
0	5926	1962.485685747929	2
0	5932	1965.074800248958	4
0	5936	1966.079171770023	1
0	5951	1971.585298545429	2
0	5964	1976.689940709857	3
0	5970	1978.989163676978	3
0	5977	1981.566479090722	1
0	5982	1981.936743690869	4
0	5994	1986.668844998578	3
0	5998	1987.500381095106	4
0	6003	1989.086260050888	3
0	6012	1992.40845514205	2
0	6017	1992.663165804934	4
0	6026	1996.578352000336	0
0	6032	1997.955780627908	1
0	6050	2003.682664443975	2
0	6065	2008.571706554855	3
0	6071	2009.582171033373	1
0	6075	2011.003501430506	2
0	6093	2015.3057346975	3
0	6103	2018.279169612911	1
0	6107	2019.65780978603	0
0	6114	2020.680776231227	1
0	6124	2024.121861687747	2
0	6135	2026.318216949472	3
0	6142	2029.167086101837	2
0	6146	2029.778874110667	0
0	6155	2032.089710199045	3
0	6167	2036.24541372166	0
0	6173	2037.518949413443	1
0	6190	2042.542296304837	4
0	6203	2048.271516531242	3
0	6207	2048.481920199938	4
0	6222	2053.97446640232	5
0	6223	2054.063133744524	1
0	6239	2059.200550802754	2
0	6256	2065.02968608728	2
0	6266	2069.75746351574	1
0	6271	2070.442625434607	6
0	6289	2075.898597783413	7
0	6295	2078.150243681391	6
0	6298	2079.496004422429	5
0	6307	2081.790291353831	6
0	6308	2082.117784182659	1
0	6311	2082.718406350353	0
0	6321	2087.665765183749	1
0	6326	2089.463856669961	0
0	6338	2092.961525241383	1
0	6347	2097.136266985563	0
0	6352	2098.199811338917	7
0	6355	2099.63550496113	6
0	6365	2103.306525671393	7
0	6377	2108.816283690049	2
0	6378	2109.410684517473	1
0	6381	2110.379197988198	0
0	6388	2113.952340344204	1
0	6400	2119.682392530613	8
0	6403	2121.886875727334	0
0	6405	2121.966067455942	7
0	6412	2125.321642490341	8
0	6418	2131.052427825057	9
0	6426	2136.8748060423	10
0	6430	2142.545832258649	9
0	6434	2142.796975505078	1
0	6443	2148.269239913678	10
0	6454	2153.412300938979	2
0	6459	2155.40690734366	1
0	6467	2158.486755560391	11
0	6478	2164.015116878325	1
0	6493	2169.369118991081	1
0	6495	2169.67572350847	0
0	6505	2172.885234409128	10
0	6514	2174.65625540191	2
0	6520	2177.371012463706	1
0	6526	2179.015221799607	9
0	6528	2179.155077531124	0
0	6533	2179.846605907666	10
0	6543	2185.149271109846	1
0	6559	2190.165181427734	2
0	6575	2196.118842327973	11
0	6584	2199.519077327456	1
0	6594	2201.982945453847	2
0	6597	2203.046614532477	10
0	6611	2207.638856511569	3
0	6614	2209.386242523098	0
0	6621	2212.922437731061	9
0	6625	2212.952135099104	10
0	6636	2217.953181601368	1
0	6641	2219.695591656964	2
0	6643	2219.98458927963	9
0	6645	2220.876590020024	8
0	6651	2223.140627074527	0
0	6655	2223.371862190548	1
0	6670	2228.830424529625	1
0	6675	2229.164858487673	2
0	6690	2235.008258610038	2
0	6694	2236.754310094873	1
0	6699	2237.439955236977	0
0	6707	2240.125024673069	3
0	6708	2240.619157555513	7
0	6719	2246.09030564549	4
0	6732	2251.259722564841	1
0	6745	2255.940420814446	3
0	6750	2256.741259396548	8
0	6767	2262.263604094979	4
0	6784	2268.026505079359	5
0	6789	2270.215588812135	7
0	6796	2272.376065794151	0
0	6803	2274.021295288583	6
0	6808	2276.618715584284	5
0	6816	2279.436286006361	1
0	6826	2282.872452462791	6
0	6833	2284.570733790291	7
0	6835	2284.628627577098	6
0	6842	2286.674047017935	5
0	6853	2289.945215351885	2
0	6858	2292.51783114777	1
0	6861	2293.717752884962	4
0	6869	2295.090987229725	5
0	6882	2300.132644955773	1
0	6884	2300.830612151417	4
0	6904	2306.120864738949	2
0	6905	2306.651690482982	4
0	6911	2308.42385003984	3
0	6918	2309.998610507585	0
0	6927	2311.500848843489	1
0	6944	2316.533275859203	2
0	6954	2318.503702635532	1
0	6969	2321.88940761658	3
0	6981	2326.022970491785	3
0	6993	2327.829493434873	4
0	7000	2330.059110057078	2
0	7008	2332.152264561859	2
0	7016	2333.481214681879	5
0	7023	2335.873265675972	0
0	7035	2338.665253516991	3
0	7047	2342.623654006984	1
0	7055	2344.204009164596	2
0	7065	2348.178955719461	1
0	7072	2349.517248467781	2
0	7081	2352.474515444371	1
0	7088	2355.09062571731	2
0	7092	2355.107700107392	1
0	7094	2356.379043634166	4
0	7111	2360.127407017402	2
0	7124	2364.746468084522	1
0	7126	2365.160701613298	0
0	7133	2365.978814600506	1
0	7148	2371.027781613176	1
0	7152	2371.040829515788	2
0	7170	2375.951447664298	1
0	7175	2376.937943555187	2
0	7195	2382.034787730086	2
0	7200	2383.056650449761	1
0	7213	2387.215491055511	3
0	7218	2387.510619375627	3
0	7225	2389.714223809889	2
0	7234	2392.208699330807	2
0	7237	2392.645934279081	0
0	7243	2393.146685956284	1
0	7262	2398.204308923572	2
0	7272	2401.473659324344	1
0	7283	2403.405533916788	3
0	7285	2403.9332750612	2
0	7297	2407.565645481467	0
0	7304	2408.987136469927	3
0	7312	2411.386713695247	0
0	7317	2413.672165302446	2
0	7321	2414.047108273261	1
0	7337	2419.731714604894	2
0	7343	2421.896622975945	1
0	7354	2425.519882919738	3
0	7359	2427.51869380416	2
0	7363	2428.574768574448	0
0	7368	2430.21339801525	1
0	7373	2431.20293177432	3
0	7385	2436.918735577032	2
0	7398	2442.607828509068	1
0	7410	2447.310446454564	2
0	7414	2447.647783675935	1
0	7434	2453.036428892758	2
0	7442	2455.525429470123	1
0	7457	2458.76617009007	3
0	7473	2463.505168563693	0
0	7478	2464.340124155167	2
0	7494	2469.497908712137	3
0	7501	2471.49127005239	2
0	7504	2472.947645027659	1
0	7507	2473.370771348015	1
0	7516	2475.162865282973	2
0	7518	2475.823292656458	2
0	7535	2480.777544388553	1
0	7541	2482.908385812659	1
0	7553	2486.132982302463	2
0	7573	2491.511142769136	3
0	7579	2493.577403455628	1
0	7593	2496.841191435472	4
0	7604	2500.106034035098	0
0	7613	2502.648293683545	5
0	7619	2505.212981215216	0
0	7627	2508.091085590662	1
0	7640	2513.218285697051	0
0	7645	2513.81409243169	1
0	7651	2516.400142902979	4
0	7661	2519.340525266954	2
0	7669	2521.489195972456	1
0	7672	2522.281626350484	3
0	7675	2523.427185461864	0
0	7682	2524.726638194413	1
0	7695	2529.887928567601	2
0	7711	2535.217840954203	2
0	7725	2539.615700646194	1
0	7732	2540.508272404557	1
0	7752	2546.360227146426	2
0	7759	2548.235027639201	1
0	7773	2551.574538841618	2
0	7776	2552.837384470277	2
0	7784	2554.411021805491	1
0	7798	2557.461464524975	2
0	7802	2558.587013566289	1
0	7806	2559.701665971667	0
0	7819	2563.23785864353	1
0	7837	2568.364125314409	3
0	7840	2569.081311447553	1
0	7857	2573.653234348407	4
0	7867	2577.048481755196	3
0	7879	2579.362217193477	2
0	7886	2580.847311918982	1
0	7895	2583.404376264898	0
0	7904	2585.105206433924	4
0	7909	2586.918993932432	3
0	7919	2590.219789728297	2
0	7937	2595.930454715861	1
0	7940	2596.53728242184	2
0	7952	2600.430238049835	0
0	7959	2601.066545282498	3
0	7963	2602.501810705997	2
0	7978	2606.210527643802	2
0	7983	2608.531075687619	1
0	7993	2611.538293294384	3
0	8000	2613.781303485631	2
0	8007	2615.865742955362	0
0	8012	2616.664315471667	3
0	8025	2622.256738341888	1
0	8030	2624.691828690594	2
0	8039	2627.655188501819	1
0	8043	2628.05471391092	1
0	8049	2630.475800917257	0
0	8058	2633.666485942444	0
0	8062	2633.869042376298	1
0	8081	2639.663028760589	3
0	8092	2644.873332321768	0
0	8097	2645.465487085291	4
0	8104	2649.431798901537	3
0	8110	2650.919151463088	1
0	8111	2651.454472897817	0
0	8123	2656.754555426546	1
0	8136	2662.231672133094	2
0	8156	2668.208908236128	3
0	8171	2673.908929963023	0
0	8175	2674.106444085723	1
0	8190	2679.611863522332	4
0	8191	2679.728414944381	2
0	8193	2680.117514004827	3
0	8209	2685.320030266194	2
0	8221	2689.661628309413	1
0	8227	2690.99728586316	2
0	8240	2696.10355885351	3
0	8248	2699.358799022981	1
0	8256	2701.850666198655	4
0	8263	2703.928127810372	2
0	8266	2704.885426256698	3
0	8274	2706.98516539066	4
0	8292	2712.961683362032	3
0	8303	2717.835742256152	2
0	8305	2718.288002484253	0
0	8309	2718.316214640866	3
0	8313	2719.709223298713	3
0	8321	2723.425578561387	4
0	8330	2728.810885655935	5
0	8342	2733.821975918495	1
0	8353	2737.724600930944	2
0	8356	2738.296131455463	4
0	8360	2739.062212101891	1
0	8372	2742.740187686532	1
0	8374	2743.149651301218	0
0	8380	2744.411186937484	2
0	8392	2748.903030446273	1
0	8399	2749.968863755706	2
0	8415	2755.164748708726	3
0	8429	2760.298176091638	4
0	8438	2762.850191732766	3
0	8450	2766.232260756668	4
0	8451	2767.289915414068	3
0	8460	2770.916984606776	0
0	8466	2771.788733638831	5
0	8477	2777.178244632211	6
0	8478	2777.760110622169	5
0	8488	2782.809080609594	1
0	8495	2785.865670949932	4
0	8505	2788.191580225256	4
0	8511	2790.710712738698	3
0	8516	2792.234092461536	0
0	8523	2794.124125151437	4
0	8530	2797.992267857197	3
0	8536	2799.719458320419	1
0	8541	2801.774331367582	2
0	8547	2803.965501446872	3
0	8553	2805.027956387269	3
0	8557	2806.428395504378	2
0	8571	2810.575225846384	3
0	8586	2815.763464876924	4
0	8600	2821.050759418642	1
0	8608	2822.800548059758	2
0	8625	2826.629724877195	2
0	8631	2829.000555528919	1
0	8634	2829.495338149844	1
0	8649	2832.292160063523	5
0	8660	2836.353067343837	4
0	8670	2838.104958466028	2
0	8682	2841.412819017664	1
0	8692	2843.418715107727	2
0	8702	2845.234475518585	0
0	8710	2847.896148685489	1
0	8714	2848.891692533397	2
0	8730	2854.501012921107	2
0	8732	2855.138830141757	1
0	8739	2857.097768752725	1
0	8751	2859.771125093575	1
0	8765	2864.465890757872	3
0	8769	2865.172212933663	2
0	8782	2868.130749007231	0
0	8792	2871.000311119256	3
0	8799	2873.955751596151	2
0	8808	2876.313372308628	3
0	8826	2881.975617676514	1
0	8845	2887.087809159194	2
0	8848	2888.28592552222	1
0	8850	2888.642783500387	2
0	8853	2889.09199470585	0
0	8858	2890.875454112428	2
0	8867	2892.763249801711	3
0	8873	2895.09042929032	2
0	8885	2898.670034769929	3
0	8890	2900.052115901041	1
0	8896	2902.524020479881	0
0	8903	2903.744940735639	1
0	8918	2909.290315447382	4
0	8937	2914.535505233339	1
0	8955	2919.145970345142	0
0	8959	2919.920315810253	3
0	8964	2920.114477166912	4
0	8979	2925.875022789702	5
0	8990	2930.011895821085	0
0	8997	2931.649962631526	1
0	9002	2933.156627857948	0
0	9012	2936.747178475146	1
0	9016	2937.963720025152	4
0	9020	2938.788708921994	0
0	9030	2942.706976980443	1
0	9037	2945.476614238236	3
0	9046	2948.674741928239	1
0	9067	2953.774153503363	2
0	9070	2954.602835066856	0
0	9077	2957.284623286345	1
0	9085	2959.416355835746	1
0	9107	2964.789454538149	2
0	9122	2969.408267817235	0
0	9129	2970.289342632757	1
0	9139	2973.575773221563	2
0	9150	2975.568244889618	2
0	9156	2977.362807123114	1
0	9158	2977.993413872444	1
0	9160	2978.110861972561	0
0	9169	2980.818393481203	1
0	9192	2986.286709043203	2
0	9199	2988.093364878563	1
0	9212	2991.367484397726	2
0	9233	2996.903162124572	3
0	9250	3002.212704390646	2
0	9254	3002.279346919624	3
0	9276	3007.982001748873	4
0	9277	3008.152188028914	0
0	9283	3010.23365836172	3
0	9292	3013.322935866663	4
0	9299	3015.489659433961	1
0	9301	3015.881463626869	0
0	9310	3018.922864585422	5
0	9314	3021.02749221284	0
0	9321	3024.554685882764	1
0	9335	3030.144288853515	1
0	9336	3030.760293422971	4
0	9350	3035.16515390203	1
0	9370	3040.874905231648	5
0	9379	3043.063041881781	0
0	9390	3046.215224267223	6
0	9405	3051.358890821931	2
0	9409	3053.436892863019	1
0	9422	3056.761854060932	2
0	9423	3057.095750060989	1
0	9430	3059.26693708066	5