version 3
run General-10-20240428-16:41:48-11298
attr configname General
attr datetime 20240428-16:41:48
attr datetimef 20240428-164148
attr experiment General
attr inifile omnetpp.ini
attr iterationvars $0=false
attr iterationvarsd false
attr iterationvarsf false-
attr measurement $0=false
attr network Supermarket
attr processid 11298
attr repetition 0
attr replication #0
attr resultdir results
attr runnumber 10
attr seedset 0
config network Supermarket
config repeat 10
config seed-set 0
config num-rngs 10
config **.use_random_strategy false

vector 0 Supermarket queueSizeOverTime:vector ETV
attr recordingmode vector
attr source updateQueue
attr title queueSizeOverTime
vector 1 Supermarket customerWaitingTime:vector ETV
attr interpolationmode none
attr recordingmode vector
attr source customerFinished
attr title "cust waiting time"
0	7	5.548813502304	1
0	13	11.264002867276	1
0	24	16.687657664064	1
0	32	20.36453168746	0
0	37	21.946741537307	0
0	41	22.479382697493	1
0	51	27.847624234855	1
0	57	30.793079621624	0
0	65	33.648534987354	1
0	71	35.51779703109	0
0	81	39.170383315533	1
0	97	44.788018816383	1
0	103	47.215521824663	0
0	109	48.281592405284	0
0	115	49.848244282882	1
0	130	55.418441058834	1
0	133	56.192094381782	0
0	149	60.832809646846	1
0	154	62.476324282238	0
0	162	65.6656265246	0
0	166	65.84638128872	1
0	174	68.617525138426	0
0	179	70.740562522317	0
0	184	71.451226806733	1
0	191	75.532783919596	0
0	196	77.331702699884	1
0	207	82.840671660843	1
0	221	88.179698894964	0
0	225	88.508082037092	1
0	239	93.512777519178	1
0	247	96.434321616309	0
0	258	99.408815908477	1
0	261	100.764547439523	0
0	273	105.084254985674	1
0	283	107.765859811565	0
0	285	107.780700000933	0
0	295	111.040338625432	1
0	311	116.469107324024	1
0	317	118.346227789879	0
0	329	121.900525758508	1
0	340	125.61412963236	0
0	350	127.82000837149	1
0	371	133.231405095895	2
0	375	134.520247203413	0
0	382	136.911959017161	0
0	390	138.591383154969	1
0	397	141.702739245724	0
0	406	144.385080857435	1
0	411	146.483285158407	0
0	420	150.006559264147	1
0	421	150.734603145159	0
0	428	154.8345244152	1
0	433	155.596469241892	1
0	446	160.576318259582	0
0	451	160.782662247307	1
0	459	164.291349997627	0
0	466	166.094458124134	1
0	480	171.548154963645	1
0	498	176.568805968388	2
0	499	176.798257237648	0
0	505	178.989575015846	0
0	515	182.366852798731	1
0	521	185.157837801612	0
0	523	186.301956695619	0
0	530	188.097708601271	1
0	536	192.146824629744	1
0	542	193.251402904744	1
0	559	199.115258506032	1
0	578	204.280217377467	2
0	595	209.096248086076	0
0	599	209.572364908175	1
0	606	212.295049706825	0
0	616	214.636320173971	1
0	633	220.128588413817	2
0	642	222.868843445323	1
0	657	225.990898194487	2
0	666	228.365373743816	1
0	668	228.79146517196	0
0	678	231.971597868015	1
0	682	232.992477474384	1
0	689	234.501365535426	0
0	701	237.378839035748	1
0	710	240.430528358088	0
0	712	240.90462085651	0
0	715	241.327234717437	0
0	720	243.050886838694	1
0	721	243.501923358298	0
0	725	245.719075253463	0
0	729	248.307026421648	1
0	736	253.60862505552	1
0	747	259.050640374884	1
0	761	264.107488447797	1
0	763	264.449233863033	0
0	767	265.812379234	0
0	777	269.380310344739	1
0	791	274.457266788693	1
0	810	279.481307278848	0
0	814	280.013696215112	1
0	833	285.470607636959	2
0	852	290.497676623749	2
0	858	293.185725302547	0
0	867	295.595145310272	1
0	873	297.382499934403	1
0	884	300.575723334444	0
0	889	300.689603226023	1
0	891	301.220743487354	1
0	903	304.792043469029	0
0	910	306.081377548861	1
0	912	306.504302140903	0
0	929	311.167910038723	1
0	938	313.211114872594	0
0	948	316.421101229728	1
0	956	318.787392147117	0
0	968	322.252620630662	1
0	987	327.886551583183	2
0	1006	333.811518499392	2
0	1031	339.803529743568	2
0	1032	339.853333423961	1
0	1034	340.788122798545	1
0	1037	340.864941433186	0
0	1042	342.54892848455	1
0	1053	345.552317996041	1
0	1065	349.566767918291	0
0	1073	351.494901598661	1
0	1093	356.787695629752	2
0	1107	361.014339710236	0
0	1115	362.379926047751	1
0	1127	366.895012167978	0
0	1134	367.657699720931	1
0	1149	372.613782668949	0
0	1154	373.546933046306	1
0	1155	373.554373322633	0
0	1167	377.855339904545	0
0	1170	378.222989537518	0
0	1174	379.095294382886	1
0	1177	380.577137025536	1
0	1180	382.253106117013	0
0	1186	384.119821783152	1
0	1197	389.144134981555	1
0	1212	394.24355137441	1
0	1231	399.832290984221	2
0	1249	405.823432638074	2
0	1258	408.460795139658	0
0	1261	408.992060699382	1
0	1266	410.497473540713	0
0	1270	410.956894107393	1
0	1281	414.84861398325	1
0	1285	416.192788669487	0
0	1289	416.244013363958	1
0	1305	421.824120271948	1
0	1310	423.283336082122	0
0	1324	427.071519024667	1
0	1338	431.737293969486	0
0	1345	432.594525418008	1
0	1357	436.726958713957	0
0	1364	437.657733033175	1
0	1378	442.488093818069	0
0	1385	443.089517959623	1
0	1395	447.485772878277	0
0	1402	448.810924621296	1
0	1406	449.7670683664	0
0	1408	449.944380461467	0
0	1419	453.958610199389	1
0	1434	459.391888934883	1
0	1435	459.900409911872	0
0	1451	464.79169062548	1
0	1453	465.308607302602	0
0	1458	466.273933804359	0
0	1468	470.41087342193	1
0	1470	471.485961625582	0
0	1481	475.526707425244	1
0	1497	480.797959502084	1
0	1500	481.556934203133	0
0	1513	486.229719627412	1
0	1515	486.453194807979	0
0	1530	491.340196738016	1
0	1535	492.973049113058	0
0	1543	495.745894137534	0
0	1547	496.425429798892	1
0	1557	500.98379504098	0
0	1563	501.960346653588	1
0	1565	502.787749290811	0
0	1580	507.803123515328	1
0	1596	512.947409613985	1
0	1616	518.27960050222	2
0	1623	520.159880032877	1
0	1631	522.982651361146	0
0	1639	524.150703031798	1
0	1651	527.428410808902	0
0	1658	529.570900174899	0
0	1662	529.646673328704	1
0	1677	535.225684532891	1
0	1681	536.748269494968	0
0	1696	540.640964476853	1
0	1702	542.604764846617	0
0	1712	546.499741944946	1
0	1724	550.187462721016	0
0	1731	551.56482442468	1
0	1751	557.058782257136	2
0	1761	559.963572997829	0
0	1766	561.374463538866	0
0	1771	562.095343245888	1
0	1772	562.856008964002	1
0	1787	567.098020314468	1
0	1788	567.557431865363	0
0	1803	572.907385285241	1
0	1805	573.257268910988	0
0	1820	578.111966193183	0
0	1824	578.195955243656	1
0	1825	578.294113779785	0
0	1832	581.306973356399	0
0	1838	583.621356974585	1
0	1846	588.309377126391	0
0	1851	589.479694610691	1
0	1864	595.334154637061	1
0	1880	601.04920723545	1
0	1899	606.471026457144	2
0	1919	611.954544587523	2
0	1924	613.12414143048	1
0	1934	616.562208064012	0
0	1941	617.20817029569	1
0	1945	618.524063672403	1
0	1955	621.465523961811	0
0	1963	623.004567062246	1
0	1972	626.326323070211	0
0	1974	626.979990514925	0
0	1978	628.246976050312	0
0	1982	628.349097524999	1
0	1994	633.674394330705	1
0	2003	638.109055506298	0
0	2011	639.437559335955	1
0	2028	645.356105783951	1
0	2036	648.278230541497	0
0	2045	650.742553187298	1
0	2064	656.259879271264	2
0	2065	656.676606762104	0
0	2072	658.010507475234	0
0	2079	661.80248922249	1
0	2083	661.90429955674	1
0	2099	667.055234453638	1
0	2101	667.978725467807	0
0	2109	670.906479393944	0
0	2115	672.36607443215	1
0	2127	677.048886484113	0
0	2133	678.339893127555	1
0	2146	683.543965886926	0
0	2150	683.835509906985	1
0	2163	688.904692566484	1
0	2181	694.33183115313	0
0	2185	694.694462182229	1
0	2187	695.126251189499	0
0	2191	696.518552721239	0
0	2201	700.186823592284	1
0	2219	705.50965312961	1
0	2227	708.566545132195	0
0	2239	711.102533397493	1
0	2262	716.684853130947	2
0	2282	722.524659656682	2
0	2293	726.050997847686	1
0	2300	727.539394464922	1
0	2304	727.592752759107	2
0	2305	727.932786163636	1
0	2317	731.059194816388	0
0	2326	733.128554679914	1
0	2328	733.658083982297	0
0	2343	738.142063383241	1
0	2357	742.234122689461	0
0	2365	743.623438612553	1
0	2379	747.726305267301	0
0	2386	748.775465843728	1
0	2392	750.570710698835	0
0	2404	754.505943898805	1
0	2410	756.790344836767	0
0	2421	760.143963184904	0
0	2425	760.206799541362	1
0	2440	765.732750487043	1
0	2460	771.560897096055	2
0	2469	774.005214947154	1
0	2480	776.72458135243	2
0	2483	777.594856207603	1
0	2497	781.527440190776	0
0	2504	782.686976424646	1
0	2514	785.605165839656	0
0	2523	787.851295740804	1
0	2527	789.060421909668	0
0	2531	789.930626668381	0
0	2542	793.243614677567	1
0	2553	797.253457401641	0
0	2559	798.953315216111	1
0	2564	801.522329095397	0
0	2572	804.269865420874	1
0	2574	805.025689418538	0
0	2584	809.519192920759	0
0	2588	809.69586781016	1
0	2600	815.494557058666	1
0	2615	821.478410885431	1
0	2618	821.954516064253	0
0	2632	826.901465323748	1
0	2649	832.19652886304	0
0	2653	832.576148134883	1
0	2670	837.884676089504	2
0	2678	839.588230271119	0
0	2686	842.887189350436	1
0	2693	843.531894060311	1
0	2698	845.266028669542	0
0	2711	849.305153192946	1
0	2718	851.589528989971	0
0	2732	854.763365451706	1
0	2742	857.307197607583	0
0	2744	858.133962392802	0
0	2751	859.798947253491	1
0	2756	861.665882486612	0
0	2764	864.950177481625	1
0	2774	869.456866305548	0
0	2779	870.180483069032	1
0	2780	870.227561265224	0
0	2791	875.598022269079	1
0	2792	876.264575063594	0
0	2800	880.903397017618	0
0	2804	881.356215980596	1
0	2811	886.018799311824	0
0	2816	887.286644364002	1
0	2828	893.208738252048	1
0	2844	898.363127854646	1
0	2853	901.105758104234	0
0	2863	903.488939010531	1
0	2869	905.129877262162	0
0	2881	909.355397679836	1
0	2884	910.340936973684	0
0	2899	915.33215963607	1
0	2920	921.044030087295	2
0	2931	924.558092356072	0
0	2938	926.405136569397	1
0	2943	927.579981960816	0
0	2957	931.65633668261	1
0	2960	932.789930013119	0
0	2975	936.893859815778	1
0	2976	937.413019231164	1
0	2992	942.054255524063	0
0	2996	942.06278592883	1
0	3004	944.202623391866	0
0	3014	947.138063208194	1
0	3022	949.935563542641	0
0	3026	951.610630740755	0
0	3032	952.681415848894	1
0	3048	958.456295630656	1
0	3060	961.955331766853	0
0	3067	963.730591337889	1
0	3074	965.26610369223	0
0	3078	966.566066354739	0
0	3085	969.272931795096	1
0	3095	973.486622845747	0
0	3101	974.915165495355	1
0	3119	980.764501830092	1
0	3137	985.750076862045	0
0	3143	986.728414819571	1
0	3161	991.773344605923	2
0	3169	993.886552994017	0
0	3173	995.338972300286	0
0	3180	996.924730258989	1
0	3186	1000.025190412992	0
0	3193	1002.171132581769	1
0	3200	1004.365576843724	1
0	3207	1006.939069056761	0
0	3213	1007.875534120709	1
0	3227	1013.191205041478	1
0	3245	1018.29257908463	2
0	3246	1018.795315654245	0
0	3262	1024.078134118807	1
0	3267	1025.369563394686	0
0	3269	1025.471018361504	0
0	3277	1028.962847332579	1
0	3282	1029.470886655845	1
0	3295	1034.508931332961	1
0	3315	1040.183989202831	2
0	3329	1044.47579403768	0
0	3336	1045.883525117761	1
0	3337	1046.238609613146	1
0	3346	1048.955756905251	0
0	3357	1051.47218726994	1
0	3369	1055.898465375527	0
0	3375	1056.78944746288	1
0	3383	1059.521526122695	0
0	3386	1059.982605908528	0
0	3393	1062.562075178367	1
0	3398	1065.292030531094	0
0	3405	1068.340316906101	1
0	3423	1073.809905047989	1
0	3429	1076.425386226616	0
0	3435	1078.333704590673	0
0	3442	1079.480335155497	1
0	3459	1085.458989642556	1
0	3461	1086.123621144095	0
0	3465	1086.704772285763	0
0	3475	1090.79909039102	1
0	3483	1093.560124824285	0
0	3492	1096.521481910948	1
0	3507	1102.305245799473	1
0	3523	1107.144935489976	0
0	3528	1107.544343520416	1
0	3533	1109.161532826136	0
0	3547	1112.99699705047	1
0	3566	1118.417982391309	2
0	3568	1119.25713316141	0
0	3581	1122.767404644047	0
0	3586	1124.007694207825	1
0	3600	1129.854711554473	1
0	3612	1132.954736650682	0
0	3621	1134.882112286513	1
0	3630	1137.387886803592	0
0	3641	1140.555122422281	1
0	3642	1141.564958947473	1
0	3659	1145.633115235244	2
0	3679	1151.578305199037	2
0	3686	1153.552250662466	1
0	3700	1156.995239148142	2
0	3702	1157.867908044479	1
0	3708	1159.474183211329	0
0	3712	1160.247219723874	0
0	3720	1162.782690750893	1
0	3733	1167.147639530823	1
0	3741	1168.635379759354	1
0	3742	1169.206704856703	0
0	3758	1173.751843012163	1
0	3767	1176.281354711849	0
0	3769	1176.58765122736	0
0	3777	1178.970626321381	1
0	3787	1183.268877387508	0
0	3792	1184.278500417007	1
0	3807	1189.482644692521	1
0	3820	1193.058187383455	0
0	3825	1194.563882312963	0
0	3831	1195.438774339614	1
0	3832	1195.754451291978	0
0	3845	1200.763773273203	1
0	3855	1204.467613057227	0
0	3861	1205.916660284848	1
0	3878	1211.008924635352	1
0	3890	1215.37463949585	0
0	3897	1216.163350058246	1
0	3909	1220.453228251418	0
0	3916	1221.829309977118	1
0	3936	1227.228895326138	2
0	3947	1230.159621882712	0
0	3956	1233.142804390744	1
0	3957	1233.292562471463	0
0	3967	1236.823420249267	0
0	3973	1238.982821087346	1
0	3988	1244.851908360601	1
0	3990	1245.193716742207	1
0	4007	1249.867646597785	2
0	4008	1249.871092587004	0
0	4013	1252.527619556517	0
0	4022	1255.825925931328	1
0	4032	1259.909997710022	0
0	4038	1261.432187835214	1
0	4043	1263.635605697978	1
0	4057	1267.399234632024	1
0	4076	1273.243561644101	2
0	4088	1276.350722265773	0
0	4092	1277.56505718978	0
0	4097	1278.398932827863	1
0	4109	1283.171703574356	1
0	4116	1284.388697693816	1
0	4122	1285.916776441497	0
0	4134	1289.86943909758	1
0	4137	1290.465051414555	0
0	4154	1295.739538886344	1
0	4164	1299.206544319162	0
0	4172	1300.964540480396	1
0	4174	1301.091787073405	0
0	4180	1302.906994970625	0
0	4187	1306.506448944092	0
0	4191	1306.82720653712	1
0	4201	1311.93995804595	1
0	4209	1315.461574537325	0
0	4212	1316.150729469832	0
0	4218	1317.658836958224	1
0	4230	1323.58175125438	1
0	4243	1328.868237601586	1
0	4263	1334.003069605438	2
0	4273	1336.462648105102	0
0	4285	1339.699747864615	1
0	4289	1340.457410710972	0
0	4302	1344.887828878119	1
0	4315	1348.864640579901	0
0	4321	1349.894032296717	1
0	4322	1350.123907796681	1
0	4329	1351.98291737411	0
0	4336	1354.551706332706	0
0	4341	1355.03688834863	1
0	4350	1358.587191782533	0
0	4357	1360.817773533279	1
0	4365	1364.447758492424	0
0	4373	1366.57573534175	1
0	4389	1372.556110416531	1
0	4411	1378.480935293475	2
0	4420	1380.91631436708	0
0	4429	1384.063124558531	0
0	4433	1384.202133411068	1
0	4434	1384.39626186096	1
0	4439	1386.416246249798	0
0	4450	1389.260700818609	1
0	4466	1394.653011930633	1
0	4478	1398.063776724148	0
0	4481	1398.162438048162	0
0	4485	1398.998535950894	0
0	4490	1400.634153700193	1
0	4497	1405.036311781841	0
0	4502	1406.409291913725	1
0	4512	1411.831174043931	1
0	4514	1412.57894757913	0
0	4525	1417.227358604075	1
0	4542	1423.020955643376	1
0	4559	1428.273809514234	2
0	4563	1428.541027720427	1
0	4572	1431.359268809659	0
0	4580	1433.465122071786	1
0	4582	1433.627574485019	0
0	4599	1438.873799465589	1
0	4604	1440.124967917327	0
0	4617	1444.407256149679	1
0	4622	1446.250978053306	0
0	4625	1446.728384313865	0
0	4635	1449.578190957887	1
0	4650	1454.934533691492	1
0	4659	1457.944644334136	0
0	4663	1459.013481141291	0
0	4669	1460.545023431063	1
0	4675	1462.496096127544	0
0	4684	1465.899577911005	1
0	4692	1468.840101680595	0
0	4700	1471.567211709677	1
0	4715	1477.002166930347	1
0	4725	1480.686259217786	0
0	4735	1482.713441899971	1
0	4738	1483.684889969755	0
0	4749	1487.220298447287	0
0	4755	1488.668036679498	1
0	4769	1493.990810017095	1
0	4787	1499.13952415529	2
0	4791	1499.75421777006	0
0	4796	1502.244360986741	0
0	4804	1504.686708244722	1
0	4810	1506.650352875813	1
0	4812	1507.337588544345	0
0	4820	1509.827625291183	1
0	4827	1513.167415870231	0
0	4834	1515.48616956197	1
0	4845	1519.127155410005	0
0	4851	1520.886115442955	1
0	4867	1526.842027751024	1
0	4888	1532.631313242477	2
0	4907	1538.206947314779	2
0	4915	1540.475729707391	0
0	4926	1543.473923212842	1
0	4931	1545.196182015346	1
0	4946	1548.515269586577	2
0	4967	1554.477765756885	2
0	4969	1555.44508217484	1
0	4977	1557.997843236657	0
0	4987	1560.281975940329	1
0	5000	1564.980890549129	1
0	5007	1566.241395528655	2
0	5018	1569.949925994145	1
0	5020	1569.967202506953	1
0	5028	1571.374471525423	2
0	5044	1576.654150323005	2
0	5049	1577.756480433621	1
0	5066	1581.975804160343	2
0	5082	1587.223555524707	0
0	5087	1587.655887945549	1
0	5090	1588.478957663864	1
0	5092	1588.853555230765	1
0	5104	1592.352187860168	0
0	5109	1592.851676979096	1
0	5116	1595.818918771685	0
0	5127	1598.807664439076	1
0	5145	1603.921204803505	2
0	5146	1604.132999825402	0
0	5159	1607.926697348004	1
0	5167	1609.800622260191	1
0	5176	1612.549239655019	0
0	5185	1614.898872175713	1
0	5198	1618.335800636203	0
0	5208	1620.834364940406	1
0	5210	1621.859423418406	0
0	5224	1626.441640451777	1
0	5225	1627.114459394352	0
0	5239	1631.822223315242	1
0	5246	1633.386824099573	0
0	5254	1635.899442895775	0
0	5256	1636.866841794218	0
0	5260	1637.18333675572	1
0	5261	1637.248004944988	0
0	5269	1642.193249355064	1
0	5283	1648.080468300258	1
0	5298	1653.626797222293	1
0	5316	1658.815196741133	2
0	5320	1659.78791085991	0
0	5335	1664.563961129746	0
0	5341	1664.776771887199	1
0	5344	1665.998599604581	1
0	5353	1668.624514131567	0
0	5356	1669.266339472722	0
0	5360	1669.821281517849	1
0	5369	1675.173688634059	1
0	5381	1679.958637154887	0
0	5385	1680.641858341165	1
0	5399	1685.761786277631	1
0	5411	1690.589705056852	0
0	5418	1691.742491117438	1
0	5437	1696.896004726404	2
0	5442	1698.37989661388	0
0	5452	1701.75516905402	0
0	5458	1702.308901343254	1
0	5459	1703.126033014844	1
0	5465	1705.124900166287	0
0	5470	1707.857592917855	0
0	5475	1708.287697879823	1
0	5480	1710.930021762724	0
0	5487	1713.312312413	1
0	5499	1718.870835515896	1
0	5508	1722.838582899531	0
0	5513	1724.424285948036	1
0	5527	1729.467556621406	1
0	5545	1734.6483676352	2
0	5549	1735.61758491303	1
0	5560	1738.734289003528	0
0	5562	1739.614948466179	0
0	5567	1740.180530686157	1
0	5580	1745.204717425739	0
0	5584	1745.278654213056	1
0	5585	1746.408474064077	0
0	5597	1750.549839842126	1
0	5607	1755.051965538288	0
0	5611	1755.604337994701	1
0	5627	1761.597743212471	1
0	5639	1765.08032243442	0
0	5644	1766.708880081532	0
0	5650	1767.570676828495	1
0	5655	1770.1723534119	0
0	5662	1772.941051091061	1
0	5681	1778.89445643755	1
0	5687	1780.70432914618	0
0	5691	1781.674232025859	0
0	5698	1784.315567199368	1
0	5715	1789.788330306759	1
0	5725	1793.453170091257	0
0	5728	1793.920443501782	0
0	5734	1795.507146016456	1
0	5739	1797.01951783988	0
0	5744	1798.733365362737	0
0	5750	1801.193615778344	1
0	5762	1806.959620526521	1
0	5776	1812.833372832504	1
0	5786	1815.74069522309	0
0	5796	1817.948520779372	1
0	5798	1819.117441371775	0
0	5808	1822.459879536758	0
0	5813	1822.967597377715	1
0	5830	1828.881996264677	1
0	5842	1832.720162699227	0
0	5850	1834.868054912887	1
0	5859	1837.566994634103	0
0	5870	1840.510395919201	1
0	5890	1846.326361064096	0
0	5894	1846.395207813238	1
0	5898	1847.7375476727	0
0	5904	1849.167826039245	0
0	5911	1851.752595678433	1
0	5918	1854.406309407783	0
0	5922	1856.345300217154	0
0	5926	1857.172180950637	1
0	5937	1862.998611356127	1
0	5950	1868.271916314607	0
0	5955	1868.561760221603	1
0	5961	1871.422588041862	0
0	5968	1873.576965537383	1
0	5982	1878.438361319825	0
0	5986	1878.582904293197	1
0	6001	1884.321306732478	1
0	6012	1887.351841819236	0
0	6023	1890.262277431548	1
0	6026	1891.298902813573	0
0	6042	1896.259457041737	1
0	6046	1897.423958363123	0
0	6055	1900.413552596112	0
0	6060	1901.437173629407	1
0	6075	1906.773296712892	1
0	6087	1910.450188710115	0
0	6090	1911.25092982093	0
0	6095	1911.905814045103	1
0	6108	1917.281527212816	0
0	6112	1917.367571672419	1
0	6113	1917.829091678949	0
0	6125	1922.466735126212	1
0	6130	1924.458910958719	0
0	6139	1927.731391205447	1
0	6157	1932.86650130548	1
0	6174	1938.292674558698	2
0	6198	1944.046354648187	2
0	6203	1945.603974411261	1
0	6213	1948.271017038724	1
0	6218	1949.453823135696	2
0	6221	1950.076296916925	0
0	6231	1954.262999337973	0
0	6236	1954.606630773512	1
0	6245	1958.809170628425	0
0	6251	1960.097249271344	1
0	6260	1964.172351041805	0
0	6266	1965.690008847039	1
0	6267	1966.350552140264	0
0	6274	1969.36055986059	0
0	6279	1971.046359751137	1
0	6291	1976.978136200221	1
0	6292	1977.06598609639	1
0	6308	1982.843979959139	1
0	6327	1988.244637372899	2
0	6340	1991.785276872801	0
0	6347	1993.256029429608	1
0	6350	1993.98914746218	1
0	6353	1994.531127047722	0
0	6363	1997.808985027597	0
0	6369	1999.117435327028	1
0	6386	2004.124722529431	1
0	6402	2009.192468745397	2
0	6423	2015.162681683428	2
0	6429	2017.475923301067	0
0	6435	2018.657913526166	1
0	6444	2020.953022035533	1
0	6457	2024.887713245578	0
0	6459	2024.895338996075	0
0	6462	2026.183594333935	1
0	6466	2026.54166689212	1
0	6472	2029.149882919965	0
0	6482	2032.310439120042	1
0	6484	2033.039478703281	0
0	6497	2037.875086338254	1
0	6501	2040.058446498001	0
0	6509	2043.378888441943	1
0	6526	2049.287014869968	1
0	6529	2050.371463191342	0
0	6543	2054.633178741899	1
0	6565	2060.580182149303	2
0	6571	2061.938578458034	1
0	6579	2064.11892202007	0
0	6589	2066.374613233371	1
0	6608	2071.891095398687	2
0	6622	2076.187040507555	0
0	6629	2077.125387046015	1
0	6644	2082.234530026905	0
0	6650	2083.005068593187	1
0	6668	2087.867210941034	0
0	6675	2088.979496638052	1
0	6686	2092.404431282422	1
0	6696	2094.294648137171	2
0	6720	2100.247558987461	2
0	6724	2101.426165773181	1
0	6736	2104.795399042539	0
0	6738	2104.80875476845	1
0	6740	2105.069784303775	0
0	6746	2105.934798729368	1
0	6761	2111.494746143692	1
0	6768	2114.392925308317	0
0	6780	2117.309037815076	1
0	6804	2123.298588887783	2
0	6813	2126.098106523739	0
0	6821	2129.215680864867	1
0	6838	2133.86445119569	1
0	6845	2134.663290994702	2
0	6851	2136.948599193707	0
0	6856	2137.926295523641	0
0	6863	2140.327969718719	1
0	6868	2141.593739916334	0
0	6877	2145.965046081686	1
0	6890	2150.848422333127	1
0	6894	2151.373254481697	1
0	6916	2156.913446157233	2
0	6923	2158.735261136195	0
0	6927	2159.84251236787	0
0	6935	2162.480887098697	1
0	6944	2166.546066037839	0
0	6950	2167.860122854815	1
0	6966	2172.870914862718	1
0	6968	2173.298712122481	1
0	6987	2178.663590242382	2
0	7010	2184.432947934134	2
0	7015	2185.963704735033	1
0	7018	2186.97941764525	1
0	7029	2189.555918611113	0
0	7033	2189.832991823316	1
0	7036	2190.55618880386	0
0	7046	2192.768715723878	0
0	7049	2194.079329735824	0
0	7054	2195.229811518448	1
0	7062	2200.261782404729	0
0	7067	2200.814294509352	1
0	7073	2205.027761631639	0
0	7077	2206.28969708527	1
0	7088	2212.057057945286	1
0	7100	2216.532914726176	0
0	7106	2217.484000306805	1
0	7109	2218.602430603695	0
0	7112	2219.977819503048	0
0	7117	2222.801621988644	1
0	7121	2224.160850030366	0
0	7127	2227.928708135611	1
0	7137	2232.65847754443	0
0	7142	2233.29975309269	1
0	7144	2235.080562372105	0
0	7151	2238.577322440915	1
0	7156	2241.746219537681	0
0	7162	2243.952162981494	1
0	7173	2249.590500684683	1
0	7188	2254.92038882337	1
0	7193	2256.967313344819	0
0	7198	2258.765241169366	0
0	7204	2260.076089596138	1
0	7217	2265.082327363542	1
0	7218	2265.187694741059	0
0	7237	2270.852866207012	1
0	7245	2273.558400013016	0
0	7257	2276.759239194212	1
0	7263	2279.015054497979	0
0	7268	2280.13993402628	0
0	7271	2280.488543774113	0
0	7276	2282.212994249068	1
0	7287	2287.274191698521	1
0	7298	2292.839197221208	0
0	7302	2293.161390383724	1
0	7318	2298.509309724435	1
0	7327	2301.476844898538	0
0	7329	2301.854547092222	0
0	7337	2304.10457624774	1
0	7351	2309.264929393069	1
0	7364	2313.124030269445	0
0	7370	2314.275110214711	1
0	7386	2319.345136659681	2
0	7388	2319.388010594524	0
0	7390	2319.791546939985	0
0	7392	2320.418799041416	1
0	7399	2324.121738259327	0
0	7403	2324.445321765025	1
0	7416	2330.412003758359	1
0	7433	2335.775470911288	1
0	7454	2341.196117921495	2
0	7461	2343.851568036823	1
0	7472	2346.695431474942	0
0	7476	2346.961382505712	1
0	7486	2350.053984746913	0
0	7496	2352.617076810677	1
0	7498	2353.542091037259	0
0	7513	2358.288473483403	1
0	7532	2363.746964646731	2
0	7537	2365.412879813226	0
0	7552	2369.722811059555	1
0	7555	2370.474449790194	1
0	7570	2374.32659179775	0
0	7575	2374.822543817334	1
0	7584	2377.796456013685	0
0	7590	2379.768061581412	0
0	7595	2380.177994777676	1
0	7612	2385.979248040118	1
0	7635	2391.841445672787	2
0	7649	2395.615418237279	0
0	7657	2397.162884263084	1
0	7665	2400.331318175765	0
0	7669	2401.307302362165	0
0	7674	2402.502991088894	1
0	7683	2407.03462456271	1
0	7690	2408.291985993036	1
0	7708	2413.461596195581	2
0	7728	2418.75453454209	2
0	7749	2424.47410928667	2
0	7765	2429.496229936946	1
0	7771	2430.107026397478	2
0	7775	2431.313726794668	0
0	7782	2433.834096025322	1
0	7792	2436.099203899497	1
0	7794	2437.336990794162	1
0	7813	2441.812200593989	2
0	7822	2443.545171045461	0
0	7833	2446.916975001799	1
0	7846	2450.665231393063	1
0	7855	2452.342000621598	2
0	7869	2456.70488817768	0
0	7875	2457.375144868618	1
0	7896	2462.987980841654	2
0	7900	2464.267500489014	1
0	7915	2468.416625698325	2
0	7937	2473.874845624896	2
0	7953	2478.57814861461	1
0	7958	2478.892188376509	2
0	7962	2480.518079541851	1
0	7978	2484.448176354165	2
0	7987	2488.190527311638	1
0	7999	2490.227525624209	2
0	8003	2491.032487390559	1
0	8022	2495.730847925641	2
0	8029	2497.721742748512	1
0	8048	2501.695488804713	2
0	8061	2505.921904806158	1
0	8065	2507.446324567073	1
0	8069	2507.668744332617	2
0	8071	2507.782692719245	1
0	8077	2509.43630954413	0
0	8079	2509.883619308002	1
0	8084	2511.550294203563	0
0	8090	2512.709454406513	1
0	8092	2513.033830812894	0
0	8104	2518.654679123772	1
0	8119	2523.893838251237	1
0	8120	2524.329115918949	1
0	8122	2524.472636448679	0
0	8138	2529.672669502901	1
0	8160	2535.313350706123	2
0	8164	2536.231911495555	0
0	8180	2540.561781094171	1
0	8185	2542.777553638555	0
0	8195	2545.86761463852	1
0	8208	2549.599590043533	1
0	8216	2551.547730109184	0
0	8220	2551.732228245813	1
0	8242	2556.787243324792	2
0	8248	2558.510946044578	1
0	8258	2561.09775161498	0
0	8264	2561.90960855991	1
0	8285	2567.70289921597	2
0	8297	2571.501238298944	0
0	8300	2572.448077566915	0
0	8305	2572.751566527406	1
0	8320	2578.655697580189	1
0	8322	2579.112390827848	0
0	8332	2583.63899053377	1
0	8338	2583.92836146452	1
0	8352	2588.651290989709	0
0	8354	2588.957176540973	0
0	8359	2589.599877189607	1
0	8360	2589.892202238313	0
0	8370	2594.611167273013	1
0	8386	2599.733100262465	1
0	8406	2605.537433179323	2
0	8429	2611.531808017049	2
0	8438	2613.982111375079	1
0	8453	2617.336974408472	2
0	8463	2620.438508317917	1
0	8466	2620.856108819595	0
0	8469	2621.918745429366	0
0	8472	2622.656621611095	1
0	8474	2622.87476248282	0
0	8478	2623.013114488678	1
0	8489	2628.809868246311	1
0	8504	2634.44540050276	1
0	8508	2635.880397953205	0
0	8511	2636.377459118608	0
0	8521	2639.502690541087	1
0	8539	2644.79731433582	1
0	8559	2650.009720044671	2
0	8566	2652.358017449844	0
0	8571	2653.914354573581	0
0	8578	2655.892323266477	1
0	8589	2660.98340014589	1
0	8594	2661.524092668197	1
0	8599	2663.266134323895	0
0	8615	2667.072015619599	1
0	8634	2672.260023588543	2
0	8652	2677.572464005086	2
0	8671	2682.691979623628	2
0	8680	2685.727492496482	1
0	8683	2685.958777677845	1
0	8691	2687.698980923505	0
0	8695	2687.879889474013	1
0	8698	2688.15195873647	0
0	8710	2692.965841041872	1
0	8715	2693.044044295787	1
0	8727	2696.306888115121	0
0	8735	2698.280500007323	1
0	8740	2699.470807793429	0
0	8754	2704.129425638583	1
0	8777	2709.883478041035	2
0	8797	2715.83572666463	2
0	8799	2716.204876878875	0
0	8805	2717.49702462123	1
0	8807	2717.844404674596	0
0	8817	2721.393864676352	1
0	8824	2723.871406467395	0
0	8828	2725.769988657202	1
0	8834	2726.455643747696	1
0	8840	2729.730632057526	0
0	8849	2731.89051738055	1
0	8865	2736.996392076132	1
0	8870	2738.875670948063	0
0	8881	2742.203594220332	1
0	8902	2748.07090173312	2
0	8911	2750.964974266007	0
0	8914	2751.608188080128	1
0	8923	2753.589017471061	1
0	8929	2755.082220206498	0
0	8943	2759.169894287824	1
0	8962	2764.177265277128	2
0	8973	2768.472114902913	1
0	8979	2769.301877002693	2
0	8983	2770.41681576124	0
0	8997	2774.776744501428	1
0	9010	2778.347928903993	0
0	9018	2780.474381387928	1
0	9038	2785.73838339699	2
0	9049	2788.474148759957	1
0	9056	2789.900394409889	0
0	9063	2791.652270763875	1
0	9068	2793.380410508015	1
0	9070	2793.434460781271	0
0	9078	2795.952977562902	0
0	9082	2796.662014023396	1
0	9086	2797.84137785085	0
0	9094	2801.712716974779	0
0	9098	2802.436066948804	1
0	9109	2808.137433072082	1
0	9123	2813.232601314546	1
0	9131	2815.654013500658	0
0	9143	2818.954865690084	1
0	9164	2824.836105580903	2
0	9166	2825.549892660691	0
0	9175	2827.947201031721	0
0	9177	2828.420050262818	1
0	9184	2830.337370435004	1
0	9187	2831.853239332322	0
0	9198	2835.484226577678	1
0	9204	2837.907729632915	0
0	9213	2841.252812926653	1
0	9230	2847.111233323109	1
0	9246	2852.601705345904	0
0	9252	2853.075873264339	1
0	9275	2858.97423867904	2
0	9279	2860.560120649049	0
0	9286	2862.541777222993	0
0	9293	2864.299993117334	1
0	9306	2869.329137870803	1
0	9309	2870.123254993692	1
0	9319	2872.825446478784	0
0	9324	2873.848187573365	0
0	9330	2874.846161268878	1
0	9331	2875.082032864326	0
0	9337	2878.645079717151	0
0	9343	2880.784922786749	1
0	9354	2886.470429773203	1
0	9369	2891.827686028316	1
0	9377	2894.224729943665	0
0	9380	2895.055435792304	0
0	9389	2897.646737793221	1
0	9390	2898.000003717367	0
0	9398	2902.076573572697	0
0	9400	2903.118963215493	0
0	9404	2903.368347289267	1
0	9410	2909.188230208115	1
0	9411	2909.394423294456	0
0	9418	2914.231159547338	1
0	9421	2915.898188131971	0
0	9423	2917.443484461745	0
0	9427	2920.043139836047	1
0	9434	2925.767181005091	1
0	9446	2931.676194479218	1
0	9464	2937.660751179321	1
0	9479	2941.462919954321	0
0	9487	2942.953632526327	1
0	9503	2948.600653239986	0
0	9508	2948.612358023873	1
0	9529	2954.360413437471	2
0	9531	2954.611650033499	0
0	9544	2959.364279919299	1
0	9565	2964.991338051618	2
0	9570	2965.923395365123	0
0	9574	2967.831339839376	0
0	9576	2968.206768049736	1
0	9584	2970.208310079058	1
0	9588	2972.51919716235	0
0	9598	2975.957346573933	1
0	9609	2980.59715571615	1
0	9614	2981.700977132884	1
0	9619	2983.301056447086	0
0	9625	2984.98742635734	0
0	9633	2987.430324144424	1
0	9640	2990.69981814606	0
0	9644	2992.40090046124	0
0	9648	2992.674067130541	1
0	9660	2997.939574853746	1
0	9667	3001.245274501383	0
0	9675	3003.235226400425	1
0	9687	3008.004379794112	0
0	9691	3008.853358122749	1
0	9700	3011.962808915876	0
0	9705	3013.66549640719	0
0	9709	3014.293640929736	1
0	9712	3015.447546728418	0
0	9720	3019.863644757071	1
0	9732	3025.790815604148	1
0	9750	3031.661362458016	1
0	9755	3032.849826336717	0
0	9771	3037.516424934841	1
0	9772	3037.932283441414	0
0	9778	3039.33308743359	0
0	9784	3041.088941833465	0
0	9790	3043.359828028591	1