version 3
run General-5-20240430-20:30:42-5479
attr configname General
attr datetime 20240430-20:30:42
attr datetimef 20240430-203042
attr experiment General
attr inifile omnetpp.ini
attr iterationvars $0=true
attr iterationvarsd true
attr iterationvarsf true-
attr measurement $0=true
attr network Supermarket
attr processid 5479
attr repetition 5
attr replication #5
attr resultdir results
attr runnumber 5
attr seedset 5
config network Supermarket
config repeat 10
config num-rngs 10
config **.use_random_strategy true

vector 0 Supermarket queueSizeOverTime:vector ETV
attr recordingmode vector
attr source updateQueue
attr title queueSizeOverTime
vector 1 Supermarket customerWaitingTime:vector ETV
attr interpolationmode none
attr recordingmode vector
attr source customerFinished
attr title "cust waiting time"
0	7	5.09310828452	1
0	13	10.22228286718	1
0	23	15.477756786626	1
0	38	20.499193017371	2
0	43	22.241940365522	1
0	57	26.495767245535	2
0	62	28.845533915446	0
0	64	29.63601818285	1
0	71	32.300449798815	1
0	73	32.596920734155	0
0	80	35.675276516356	0
0	85	37.625647104112	2
0	92	42.972188308369	1
0	96	45.880958967841	1
0	105	48.944852997083	1
0	115	53.533459783997	0
0	122	54.504810103914	2
0	132	60.0214217545	3
0	139	63.858832893428	0
0	145	65.286080478225	1
0	156	70.793264603242	4
0	158	71.822061085257	3
0	168	76.157683941303	1
0	183	81.324475812959	4
0	187	82.698403518413	3
0	201	86.376734498889	4
0	202	86.405333981732	0
0	211	91.358167941798	3
0	215	91.65387749672	1
0	229	96.833705186845	4
0	230	97.381092311232	3
0	234	98.904513371642	2
0	246	101.886446508347	2
0	250	104.10534227884	1
0	261	107.087631746662	3
0	275	112.795521047433	2
0	279	113.018961018185	2
0	281	113.899811249693	1
0	283	114.181037169766	1
0	296	118.702166788281	2
0	301	120.877447501874	0
0	311	123.908228419722	1
0	326	129.130267806352	2
0	329	130.004827801838	0
0	340	135.056264302228	3
0	353	140.852981558768	1
0	358	143.484461842455	2
0	361	143.9676706685	1
0	370	146.043332992121	1
0	390	151.825166664319	2
0	391	151.891216077261	0
0	401	155.772473627703	0
0	406	157.280573513359	1
0	423	162.499924349599	1
0	425	163.405791664497	1
0	430	165.302673746367	0
0	434	166.158179675928	1
0	436	166.333008058718	0
0	438	166.512585380698	0
0	443	167.794853892178	2
0	450	173.065135515296	1
0	461	178.320474423469	1
0	480	184.303690057947	2
0	489	187.423720638384	1
0	497	189.530804223149	1
0	506	192.644801031332	0
0	511	193.901780509972	0
0	513	194.608773687972	1
0	518	195.009920464364	2
0	529	200.426125161584	2
0	532	202.996300330386	1
0	540	205.45215687086	1
0	549	209.072102784763	1
0	557	210.992453101092	2
0	562	212.790597721004	0
0	573	216.57624541293	1
0	576	217.728346057006	1
0	589	222.300846871455	2
0	604	228.220103890636	1
0	627	233.483807717684	3
0	638	236.461372739636	2
0	651	239.44808383356	2
0	660	241.776955299431	1
0	663	242.861586317887	0
0	669	244.370245254485	1
0	673	245.245843942279	2
0	684	249.389494754607	0
0	689	250.963834089229	1
0	698	254.112657988796	0
0	700	254.282058956686	1
0	707	256.385379897665	1
0	712	258.011427023683	0
0	719	260.86106196244	0
0	725	262.224497202553	1
0	734	267.238402571065	2
0	746	273.101710536984	1
0	764	278.657295540908	3
0	768	280.232015200195	0
0	774	282.603683191818	2
0	777	284.204946959741	1
0	781	284.478952571984	2
0	788	288.257222767688	1
0	795	290.319296743489	1
0	812	296.312600461069	2
0	826	301.925838029246	2
0	843	306.98548891116	2
0	845	308.287993202686	1
0	859	312.745191254654	3
0	869	317.784353606289	2
0	874	318.245082889917	3
0	879	320.697797612522	1
0	889	323.525672506309	2
0	904	328.575370188803	1
0	908	329.600635085606	2
0	913	330.814919981176	0
0	925	334.529622578528	1
0	928	335.419884913486	1
0	947	340.016666061711	2
0	969	345.57831047196	3
0	974	346.629438927166	0
0	984	350.146374386736	0
0	991	351.565332274652	4
0	993	352.917290838318	3
0	1003	357.080364289927	1
0	1004	357.290912107102	1
0	1024	363.041499335552	2
0	1028	364.826323074172	2
0	1030	365.483029093127	1
0	1040	368.804609455401	2
0	1056	374.18546186178	3
0	1057	374.456023100415	1
0	1074	379.39409150416	1
0	1081	381.409092594058	2
0	1092	384.48388457857	2
0	1111	389.601794828661	0
0	1118	390.098383438773	3
0	1132	395.27383940597	2
0	1141	398.504187065181	1
0	1151	400.862154230708	3
0	1162	404.860717624076	2
0	1167	406.086501093581	4
0	1169	406.29135503818	3
0	1176	409.186798908514	1
0	1185	411.128630598308	4
0	1187	412.204678276791	0
0	1194	415.248793559381	0
0	1199	416.307898821309	5
0	1208	421.415424247738	1
0	1220	427.321376292268	2
0	1231	432.833181065507	3
0	1236	434.623952804599	4
0	1246	438.3043412189	5
0	1254	442.425938583445	2
0	1261	443.872526995372	1
0	1276	449.046355522703	2
0	1279	450.156338915812	1
0	1295	454.162798645673	3
0	1311	459.757735571125	2
0	1314	460.467517381884	4
0	1318	461.755773731389	2
0	1326	464.252311884544	1
0	1332	464.898622662061	1
0	1351	470.207106821471	3
0	1354	470.401572145291	0
0	1370	475.622192831011	2
0	1380	479.088440378196	3
0	1382	479.640505239249	2
0	1385	480.452483114204	1
0	1392	481.417462349403	3
0	1408	487.152003448223	2
0	1423	493.07200207794	3
0	1427	494.019932039546	2
0	1431	495.113896563416	2
0	1446	499.05707893148	3
0	1461	504.909074830124	4
0	1464	505.480193954775	1
0	1479	509.960770708509	2
0	1483	511.695897293161	2
0	1496	515.406570089283	3
0	1511	520.429405312054	1
0	1514	520.742600116992	3
0	1521	523.108948811073	0
0	1523	523.233648297377	2
0	1526	524.575016138377	1
0	1536	526.294333002065	4
0	1551	532.249738320476	2
0	1569	537.565665436443	1
0	1583	542.337898910743	1
0	1589	542.88826645189	5
0	1591	543.730609886347	0
0	1602	546.824849231633	1
0	1608	548.209444481414	2
0	1618	551.525308392359	0
0	1620	551.539904358794	4
0	1627	553.340160228545	1
0	1631	555.13448615337	3
0	1646	559.300752480282	4
0	1653	562.098039817179	3
0	1658	563.248047231116	1
0	1665	564.871403184487	2
0	1668	565.792998300402	0
0	1678	570.523195724469	1
0	1688	575.097979062584	1
0	1694	576.000089773909	1
0	1707	579.88840636995	2
0	1714	581.242413109402	2
0	1729	586.081273881371	0
0	1734	586.663037609077	2
0	1749	591.914030965418	3
0	1761	597.363408833511	2
0	1765	597.550476924051	3
0	1767	597.772345686678	2
0	1787	603.46365820244	3
0	1790	604.731432120197	2
0	1796	605.978265739978	1
0	1807	609.245067457669	1
0	1827	614.989387382987	3
0	1829	615.64909316797	2
0	1833	616.66885203938	1
0	1849	620.178639787949	2
0	1854	621.768126384472	1
0	1870	625.31251949235	2
0	1891	631.251549831127	3
0	1892	631.252667960013	0
0	1899	634.001293597973	2
0	1904	635.643825775129	0
0	1909	636.39410641743	3
0	1917	641.229580395043	2
0	1923	642.308220216307	1
0	1937	647.390032685363	1
0	1955	652.600389433095	2
0	1980	658.282079323429	3
0	1990	661.497024629151	1
0	1998	663.207195435187	0
0	2000	663.558567043855	1
0	2004	663.613581605723	4
0	2018	669.119830479381	1
0	2034	673.678219019669	3
0	2036	673.882315248368	0
0	2043	674.98515908816	2
0	2056	680.144041917055	3
0	2058	680.762865807855	2
0	2071	685.181171620731	4
0	2076	686.720928286902	0
0	2081	688.679938048359	3
0	2083	689.780610375799	1
0	2087	690.305731650675	1
0	2094	692.957172028838	0
0	2103	696.039421475493	4
0	2111	700.846406734084	3
0	2116	701.724453666714	1
0	2133	707.475955273258	4
0	2148	712.822108806577	2
0	2154	715.722298432721	1
0	2158	716.773340373419	3
0	2164	717.827379955911	2
0	2179	723.408257468604	3
0	2192	728.885173334741	2
0	2199	731.055635814436	2
0	2208	734.194202314365	3
0	2218	737.810470171389	1
0	2226	739.252455104376	4
0	2241	745.027524371865	4
0	2243	745.894125523513	3
0	2258	750.261733046035	4
0	2260	750.616668320842	3
0	2263	751.481182917603	0
0	2273	755.500187361148	5
0	2276	756.498418673759	4
0	2284	760.701611972998	3
0	2288	761.459936177359	4
0	2291	762.714900987458	3
0	2302	766.960418732605	1
0	2303	767.151285924482	2
0	2306	768.204619380528	1
0	2320	772.211267767475	2
0	2337	777.854638633785	2
0	2352	783.046146708076	3
0	2357	784.078951521312	2
0	2361	785.398493722082	1
0	2372	788.426872498124	1
0	2377	789.495471455975	2
0	2390	793.693639040226	0
0	2396	794.321044809884	3
0	2404	797.579810538679	2
0	2412	799.698584523285	2
0	2423	804.090090944316	1
0	2429	805.26127008861	1
0	2443	809.349247685867	1
0	2450	811.068817320979	2
0	2470	816.269593710081	3
0	2479	818.661028258968	0
0	2487	821.368281463395	4
0	2489	822.067647582971	1
0	2505	827.236255454832	1
0	2524	832.938706984279	5
0	2525	833.59318979038	0
0	2533	836.502357144491	4
0	2539	838.3573270567	0
0	2543	838.358883850045	1
0	2560	843.69639945985	2
0	2563	845.016826003327	0
0	2574	848.969061245911	3
0	2581	852.943240360124	3
0	2587	854.885024542922	4
0	2599	860.750763722464	5
0	2612	866.245118438268	4
0	2614	867.753328291	3
0	2624	871.61240235693	6
0	2630	875.213265093276	5
0	2634	876.387611497192	2
0	2638	877.165487183725	6
0	2650	882.335516407156	1
0	2657	885.292081567461	5
0	2667	887.840657323833	2
0	2683	893.096127881204	6
0	2699	898.872910304695	7
0	2711	903.636753039317	1
0	2716	904.361733637286	1
0	2718	904.842564308665	0
0	2721	906.020370189453	6
0	2737	909.935875545956	3
0	2746	913.20013783756	5
0	2749	913.993031944966	4
0	2756	915.327043746134	2
0	2757	915.750633784572	2
0	2769	920.683478197783	1
0	2778	923.747186510127	1
0	2788	926.02829187154	5
0	2806	931.49013903679	0
0	2810	931.612807068044	6
0	2826	937.426230385668	7
0	2829	938.723585854173	6
0	2836	942.051231709311	1
0	2842	942.661471305416	1
0	2849	944.523968815107	0
0	2861	947.962437760319	2
0	2877	953.409422049533	2
0	2882	954.990662853356	5
0	2885	956.317249576215	1
0	2893	958.610386755086	2
0	2896	959.139091784257	4
0	2908	963.568797508144	3
0	2915	964.389746796341	3
0	2931	969.641678838992	4
0	2935	971.47602182883	2
0	2937	972.281140565175	1
0	2949	975.634727813305	2
0	2957	978.564148514532	1
0	2963	981.005769015643	3
0	2967	981.486449319172	4
0	2970	982.228530442343	1
0	2983	986.76276519755	1
0	2998	991.623597160332	0
0	3002	992.138419853757	2
0	3021	997.62279615691	2
0	3036	1003.01842021593	3
0	3042	1004.8026612344	3
0	3044	1005.807068404396	2
0	3048	1006.917582297934	1
0	3059	1008.795095104725	4
0	3063	1009.845389194092	0
0	3065	1010.618483542234	1
0	3070	1013.301688130831	3
0	3075	1014.541245740606	4
0	3087	1020.084398339503	1
0	3088	1020.482924680695	3
0	3103	1025.675293961544	2
0	3107	1025.903753329767	2
0	3116	1029.148534975246	1
0	3124	1031.206524313428	3
0	3127	1032.218590490519	0
0	3137	1036.431827519089	2
0	3149	1042.148336647777	1
0	3163	1047.37128593633	2
0	3172	1051.25249452493	1
0	3179	1052.782287373441	4
0	3188	1056.886277994959	3
0	3194	1057.876980829985	2
0	3214	1063.498461671175	3
0	3231	1069.403311946198	3
0	3240	1072.667058644585	2
0	3242	1073.138080021484	2
0	3244	1073.463056831735	2
0	3250	1074.564758827446	3
0	3251	1074.786705594624	1
0	3261	1078.760556327296	2
0	3269	1080.556396474831	1
0	3276	1082.910867339118	1
0	3281	1083.657261216429	0
0	3290	1085.990566713738	2
0	3300	1089.063292412206	1
0	3310	1091.614251187539	3
0	3316	1093.294829752415	0
0	3319	1094.16094716557	2
0	3327	1097.317966407633	3
0	3331	1099.328531563168	0
0	3337	1102.39554059692	4
0	3339	1103.955564246746	3
0	3345	1107.661907176956	4
0	3353	1113.477661929562	1
0	3365	1118.746383461639	1
0	3375	1123.234864015832	3
0	3382	1124.681915311612	2
0	3400	1130.287408662265	1
0	3417	1135.781989153012	3
0	3418	1136.015213821319	2
0	3421	1136.46974267648	0
0	3426	1138.296170989171	1
0	3433	1140.976063858487	2
0	3438	1141.764288434529	2
0	3439	1142.315148163589	1
0	3442	1142.798742820979	1
0	3456	1146.887443613963	2
0	3469	1151.256155042328	0
0	3474	1151.9483804144	2
0	3486	1157.168976616351	3
0	3488	1158.503433475743	2
0	3491	1159.528685813538	1
0	3501	1163.160099294739	1
0	3512	1167.997659830611	0
0	3516	1168.214721091794	1
0	3532	1173.672243865444	3
0	3534	1174.157414685473	0
0	3544	1178.828892871975	1
0	3549	1180.788089698885	2
0	3561	1184.299952700972	3
0	3563	1184.984642406231	0
0	3573	1189.621582277124	1
0	3583	1194.423613057244	0
0	3589	1194.734024741459	4
0	3590	1195.652768739156	0
0	3597	1199.799198542028	5
0	3603	1205.392716715816	1
0	3611	1210.460068318766	4
0	3616	1211.326017276389	1
0	3630	1216.53226128384	5
0	3648	1221.987233698838	2
0	3664	1227.829955946658	1
0	3673	1230.887296016101	1
0	3687	1233.771892414898	2
0	3698	1236.772521761716	0
0	3703	1238.068514910649	4
0	3711	1239.612240113322	3
0	3712	1240.059706723904	2
0	3729	1245.401093670404	5
0	3741	1250.481918940674	1
0	3746	1250.722899708435	2
0	3756	1254.30018677528	1
0	3764	1256.459198423199	6
0	3779	1261.49288830045	1
0	3783	1262.403283660072	0
0	3789	1263.63652913669	5
0	3798	1266.842334406221	2
0	3799	1267.11801573716	1
0	3817	1272.818511809692	1
0	3837	1278.166105735585	2
0	3851	1282.781181758626	4
0	3857	1283.552783000985	2
0	3860	1284.591886112238	1
0	3863	1284.929621119405	0
0	3872	1288.531988694453	1
0	3878	1289.068927564895	2
0	3892	1294.880905390488	5
0	3897	1297.628751065702	0
0	3906	1300.231621400457	1
0	3920	1305.393577032146	4
0	3925	1305.700312994424	1
0	3944	1311.41011546017	2
0	3948	1312.019529695977	1
0	3969	1316.91314350488	2
0	3983	1321.19095023268	0
0	3989	1322.626051050149	3
0	3999	1326.177158896814	2
0	4007	1327.972364679681	3
0	4008	1328.120018740304	1
0	4024	1333.038841093195	5
0	4032	1336.722575237397	4
0	4039	1338.301624613119	4
0	4042	1339.503747271029	3
0	4059	1344.271884853955	5
0	4073	1349.528441286416	2
0	4074	1349.82990151027	1
0	4076	1349.884681658243	4
0	4087	1354.299846308076	0
0	4092	1355.042782735781	5
0	4103	1359.770404777845	4
0	4108	1360.390716061465	1
0	4122	1365.815311197428	5
0	4128	1367.801453655589	2
0	4131	1369.002124951457	0
0	4138	1370.881208998853	6
0	4150	1376.574937768284	1
0	4166	1382.001202004034	7
0	4175	1385.850728275726	6
0	4178	1386.560068053426	1
0	4185	1387.686153908264	2
0	4200	1392.927618730817	2
0	4202	1393.937868610027	1
0	4206	1395.178884270484	1
0	4218	1398.707660830583	1
0	4238	1404.661425711125	2
0	4241	1405.486004200418	1
0	4257	1410.138489565583	7
0	4272	1414.340172010356	0
0	4278	1415.19765776466	8
0	4285	1418.055446706714	0
0	4289	1420.718757892849	7
0	4293	1421.133847111374	1
0	4294	1421.168948120556	0
0	4304	1426.240257088099	2
0	4308	1428.183584121641	1
0	4312	1430.799914526989	0
0	4314	1431.361630454549	6
0	4318	1431.919305694992	7
0	4324	1436.999761348594	1
0	4336	1442.281309411865	1
0	4349	1447.415620368444	2
0	4350	1447.456570717511	0
0	4363	1453.093697385168	1
0	4377	1458.347125825243	3
0	4382	1460.645209580897	2
0	4393	1463.479183334395	2
0	4396	1463.94036136766	6
0	4410	1468.973730448637	7
0	4425	1473.994015333479	3
0	4437	1479.151514111789	1
0	4444	1480.956633535218	2
0	4460	1484.825404486157	3
0	4465	1486.860618667564	0
0	4469	1487.606329064705	2
0	4472	1488.452313914202	6
0	4482	1490.40526311193	1
0	4499	1494.605019920162	1
0	4507	1496.392333247004	3
0	4509	1496.820289148955	5
0	4529	1502.027325153122	2
0	4532	1503.094602058996	2
0	4547	1507.059686924568	6
0	4557	1509.619558402924	1
0	4566	1511.496501029707	0
0	4568	1511.569097293196	1
0	4572	1512.141950469468	2
0	4576	1513.206485131181	5
0	4587	1516.739463540617	4
0	4593	1517.595734478211	2
0	4595	1518.494358296977	1
0	4609	1523.170848990561	5
0	4626	1529.02907181159	6
0	4629	1529.659466762453	5
0	4643	1534.207345385108	3
0	4654	1539.283886031717	2
0	4669	1544.54478997691	1
0	4673	1546.086404088773	2
0	4678	1547.04204002873	1
0	4692	1550.144935472174	3
0	4711	1555.227803554856	2
0	4731	1560.710127434465	3
0	4735	1561.868762496519	4
0	4749	1565.658894951931	3
0	4755	1565.982889203825	4
0	4767	1569.745042524655	2
0	4776	1571.207794360588	3
0	4785	1573.178489595658	2
0	4788	1574.308101968147	3
0	4795	1576.395041221647	2
0	4802	1576.969219112075	3
0	4811	1579.996294316373	0
0	4820	1582.665962959877	1
0	4821	1583.189672815036	2
0	4826	1583.853877955821	2
0	4840	1587.736291294922	3
0	4850	1590.630647108547	1
0	4861	1592.921745492848	4
0	4872	1595.821342293183	3
0	4878	1597.625381984405	0
0	4883	1598.190250858669	4
0	4899	1603.951566860317	5
0	4901	1604.327942727137	1
0	4907	1606.050921848631	0
0	4916	1609.345121774827	2
0	4926	1614.149116148011	1
0	4931	1615.301319373543	1
0	4940	1619.406868896808	4
0	4946	1620.912066320194	2
0	4960	1625.934750153687	2
0	4976	1631.048893011877	1
0	4987	1633.854449269132	1
0	4998	1636.210599663671	2
0	5002	1636.934287103712	1
0	5020	1641.91846288904	3
0	5029	1644.526567122554	2
0	5042	1647.348371018194	5
0	5048	1649.097813424784	4
0	5052	1650.364743298981	3
0	5056	1651.327648331076	2
0	5064	1652.727815175666	2
0	5071	1654.848442890569	1
0	5079	1656.272314110658	0
0	5088	1657.789561692629	3
0	5090	1658.847232099509	0
0	5098	1663.276173431546	1
0	5102	1663.383728506746	4
0	5114	1668.956528967716	1
0	5115	1669.442227926934	3
0	5130	1674.24073067203	0
0	5134	1674.805793354525	1
0	5135	1674.891752757378	2
0	5145	1679.508955136411	0
0	5151	1680.50777245942	3
0	5154	1682.71460797056	0
0	5160	1685.755177956544	4
0	5167	1691.234010978839	1
0	5178	1697.176341399322	1
0	5193	1702.865984612149	2
0	5199	1705.274119325693	3
0	5209	1708.031876874394	4
0	5210	1708.343667908343	1
0	5216	1710.309138747053	0
0	5225	1713.272149510919	1
0	5240	1718.753236882393	2
0	5244	1720.100702215813	3
0	5255	1724.096920660236	1
0	5256	1724.394162098656	2
0	5261	1725.656607030896	0
0	5274	1729.913521051644	2
0	5288	1734.949313291353	1
0	5306	1739.974536703556	1
0	5314	1740.749615781712	2
0	5322	1743.209924909292	1
0	5334	1746.105237724729	3
0	5338	1747.281821953603	0
0	5344	1749.136310640968	1
0	5351	1751.540241298735	2
0	5358	1754.003424398488	2
0	5368	1757.308367291702	1
0	5386	1762.678567641186	2
0	5396	1765.527067505408	1
0	5405	1768.067989176375	1
0	5410	1768.634753451687	2
0	5412	1769.400708771314	0
0	5418	1770.695154127788	1
0	5428	1773.650811716453	2
0	5441	1778.777685852736	1
0	5446	1779.233067794475	3
0	5463	1785.010998257906	4
0	5479	1790.487720839917	2
0	5493	1795.826560551771	5
0	5495	1796.396075746978	4
0	5498	1796.926849488067	1
0	5507	1800.859141337344	0
0	5511	1800.985252209711	2
0	5515	1802.218548072866	1
0	5517	1803.106134941816	0
0	5524	1806.888005519291	1
0	5536	1812.737675304763	2
0	5548	1818.068971366627	3
0	5554	1822.436975589257	3
0	5560	1823.630673649493	1
0	5573	1828.725108770891	4
0	5576	1830.058427445132	3
0	5589	1833.910137627278	1
0	5612	1839.793804050195	4
0	5613	1839.803647561003	2
0	5634	1845.323881887835	5
0	5636	1845.943522488705	4
0	5647	1848.808525240871	3
0	5657	1850.681856718617	3
0	5664	1852.410229506674	0
0	5669	1853.867004881968	0
0	5676	1855.971048689917	4
0	5680	1858.417580465094	2
0	5687	1861.829784360718	3
0	5693	1864.781882201561	3
0	5700	1866.934137170672	4
0	5711	1872.803334863394	1
0	5718	1875.125698857831	3
0	5730	1878.55463109189	1
0	5740	1881.54591865745	2
0	5753	1884.262406991565	3
0	5762	1886.977354350041	2
0	5773	1889.269225172934	2
0	5775	1890.063292269367	1
0	5791	1894.640823301396	3
0	5801	1897.410318608985	2
0	5803	1897.793113947384	0
0	5811	1899.837350402495	4
0	5816	1901.767426010693	3
0	5829	1905.729419131067	3
0	5831	1906.193622634868	0
0	5841	1911.015720996775	1
0	5842	1911.155384442078	2
0	5859	1916.912382001059	4
0	5876	1922.570553863656	1
0	5887	1925.597344545189	3
0	5899	1928.521739157617	2
0	5903	1929.851899429226	0
0	5907	1930.533240787925	2
0	5910	1931.806622053855	1
0	5914	1932.861853146346	1
0	5920	1934.444216759644	2
0	5932	1939.461060989307	1
0	5936	1939.646301398055	3
0	5952	1945.506040784299	2
0	5969	1951.084616719979	2
0	5976	1953.645931220268	1
0	5990	1956.800353093074	1
0	5991	1957.556503248641	2
0	6010	1962.525173960953	3
0	6014	1963.314993910036	2
0	6023	1965.615014323038	0
0	6030	1967.629876653199	2
0	6037	1969.74519901036	1
0	6052	1973.338409184712	3
0	6059	1976.540856510409	2
0	6067	1978.801017422928	1
0	6086	1983.849739433267	2
0	6088	1984.014652187936	0
0	6093	1986.029478210958	1
0	6097	1987.183720533396	1
0	6104	1989.500395582058	3
0	6111	1991.70311698469	0
0	6115	1992.961811291294	2
0	6123	1995.107335874346	3
0	6133	2000.481039610692	4
0	6145	2005.880998244743	2
0	6148	2007.291778898804	3
0	6158	2011.290298359237	3
0	6164	2015.653355812083	2
0	6169	2016.59623153275	1
0	6185	2022.399434588618	1
0	6204	2027.606909006602	3
0	6205	2027.737481137739	0
0	6215	2030.821572213209	2
0	6223	2033.465617380106	1
0	6244	2038.963206802729	3
0	6247	2039.739624943945	2
0	6251	2040.365545786453	0
0	6253	2040.799656562868	1
0	6267	2044.869932941395	4
0	6282	2050.5027881784	3
0	6287	2050.639763225104	2
0	6300	2055.645165886731	1
0	6309	2058.410744984518	0
0	6321	2061.449993230869	2
0	6332	2064.534163675514	2
0	6344	2067.106304808753	1
0	6349	2069.065868866641	1
0	6358	2071.330123125935	1
0	6364	2072.319980354747	2
0	6383	2077.23216050805	1
0	6388	2078.225379222771	2
0	6403	2081.947519202018	0
0	6411	2084.116650788113	3
0	6412	2084.238875973517	2
0	6429	2089.77560344641	3
0	6441	2094.841943049802	4
0	6448	2096.595403513754	1
0	6461	2100.594147621187	1
0	6466	2101.854556456334	0
0	6480	2106.393451664363	2
0	6481	2106.438022653469	3
0	6500	2111.731041058199	1
0	6516	2117.022734433179	2
0	6520	2117.766900678979	0
0	6536	2122.696559729287	4
0	6537	2123.054427914218	3
0	6544	2124.938663146108	1
0	6557	2128.389226629166	4
0	6573	2134.177966405638	1
0	6597	2140.110517795198	2
0	6599	2140.646594833464	1
0	6609	2142.874554073319	1
0	6613	2144.339662674012	3
0	6617	2144.993918569291	0
0	6622	2145.631509842119	2
0	6635	2150.438145708875	1
0	6639	2150.650915754261	1
0	6658	2156.288694299525	2
0	6679	2161.830417141552	2
0	6690	2164.984426548485	2
0	6702	2167.352855861421	3
0	6709	2169.990767685462	1
0	6719	2172.446262143321	2
0	6735	2176.693320441408	1
0	6738	2177.272024866777	1
0	6743	2177.599450309995	2
0	6760	2182.486119440289	1
0	6766	2182.86107647489	2
0	6785	2188.165047145218	4
0	6802	2193.389648573137	3
0	6808	2194.013461583529	2
0	6830	2199.866520329846	4
0	6845	2203.908906351777	0
0	6852	2205.61415160075	3
0	6853	2205.949587887383	2
0	6871	2211.461575372146	3
0	6874	2212.828040569569	3
0	6876	2213.33102708554	2
0	6888	2217.246265973664	3
0	6906	2222.622086632998	3
0	6921	2228.354541333859	4
0	6931	2232.13641172333	3
0	6934	2232.567343997647	2
0	6938	2233.44908775203	4
0	6955	2238.479031643132	4
0	6960	2240.410157894847	3
0	6971	2243.880689064972	1
0	6991	2249.783996339654	3
0	7010	2254.910399468149	2
0	7021	2258.290729857279	2
0	7023	2258.298460988925	2
0	7026	2258.748132650272	3
0	7033	2260.170248871901	3
0	7050	2265.140087459583	2
0	7056	2266.008430937304	4
0	7060	2267.076909539524	3
0	7063	2267.595172142973	1
0	7080	2271.879197242901	3
0	7091	2275.343257496829	1
0	7102	2277.670581696088	4
0	7111	2280.64643901227	0
0	7114	2280.959084533502	2
0	7122	2282.743006316711	3
0	7128	2285.640570910649	3
0	7136	2288.162437095769	0
0	7140	2288.258307256968	1
0	7155	2293.817032389808	4
0	7161	2296.402682259561	2
0	7164	2297.527948527946	0
0	7172	2299.54075116897	5
0	7178	2303.916552326179	4
0	7184	2305.072596680606	5
0	7187	2307.709983324634	4
0	7192	2310.692713584404	3
0	7196	2310.840787787456	4
0	7203	2314.894487323474	3
0	7209	2316.549335155869	1
0	7215	2319.336401818319	1
0	7225	2321.811585452175	4
0	7226	2322.287981636009	3
0	7241	2327.141305205645	4
0	7257	2332.624304879457	2
0	7261	2334.191406504133	0
0	7269	2337.636766058859	1
0	7277	2340.819046499441	3
0	7289	2343.422089276836	2
0	7306	2348.69519085344	4
0	7312	2351.086096898185	1
0	7319	2353.502664781524	1
0	7323	2354.017680714373	2
0	7328	2355.898359120125	3
0	7339	2359.629254699916	0
0	7343	2360.002254108899	1
0	7348	2362.636364246369	2
0	7358	2365.111635934096	3
0	7373	2370.297916373704	1
0	7391	2375.662356575486	2
0	7394	2376.286633736568	2
0	7413	2381.276711747749	2
0	7434	2386.790671837051	3
0	7443	2389.33104965207	1
0	7455	2392.420380875003	3
0	7456	2392.42913938954	1
0	7463	2394.372271849309	0
0	7465	2394.898072907468	2
0	7477	2398.266921187053	3
0	7484	2400.829753982715	2
0	7494	2403.441526000388	1
0	7499	2404.672768667455	2
0	7514	2408.30338015093	0
0	7519	2408.815262287157	1
0	7543	2414.456413464388	2
0	7545	2415.091222853399	1
0	7557	2418.447475917869	1
0	7559	2418.827261969563	0
0	7566	2419.946389657213	1
0	7571	2421.044234551372	1
0	7580	2423.387337223977	0
0	7588	2425.364178134828	2
0	7599	2430.055741684277	0
0	7603	2430.393303430175	2
0	7605	2431.309735342509	1
0	7612	2434.645735567318	0
0	7617	2435.822438395584	1
0	7619	2437.481263829162	1
0	7629	2440.953523931794	1
0	7647	2446.286207256375	1
0	7651	2447.475661733772	0
0	7655	2448.630145077362	0
0	7662	2451.50781680993	2
0	7675	2457.032851476457	1
0	7692	2463.03251128155	2
0	7697	2464.566917260182	1
0	7699	2464.607985717596	1
0	7710	2468.415453491502	2
0	7728	2473.532759428492	1
0	7746	2478.989699699918	2
0	7761	2483.18577103818	1
0	7767	2484.235352558086	3
0	7775	2486.526478383227	2
0	7778	2487.333957805072	0
0	7781	2487.740846933101	0
0	7789	2489.611439444127	3
0	7798	2493.907049606673	2
0	7804	2494.942209322008	1
0	7811	2498.131320182469	0
0	7813	2498.504596206828	0
0	7815	2499.096686096515	1
0	7820	2500.153674140808	1
0	7829	2505.335504488556	2
0	7840	2511.186637941983	1
0	7854	2516.572319762318	2
0	7860	2518.601896946903	0
0	7864	2520.768080332552	1
0	7866	2520.785080883655	1
0	7872	2522.196654026166	2
0	7882	2527.749808260592	1
0	7886	2527.93720291462	1
0	7888	2528.973977123156	0
0	7899	2533.590983016884	2
0	7911	2539.125422894724	1
0	7925	2544.240413729569	2
0	7936	2548.027356004229	1
0	7938	2548.730320761332	1
0	7945	2550.074439501857	1
0	7956	2553.388319916094	0
0	7964	2555.405575164362	2
0	7966	2555.615212361795	0
0	7981	2560.805901665242	3
0	7993	2566.235220915872	1
0	7995	2567.882415346336	2
0	8008	2571.404485946755	1
0	8024	2575.974992355568	0
0	8031	2576.575008701767	2
0	8038	2579.408552179114	1
0	8040	2579.883374055965	0
0	8045	2582.07870911772	1
0	8049	2582.219901758014	2
0	8059	2587.760119599756	0
0	8064	2588.026665150654	3
0	8067	2593.290379412358	2
0	8071	2593.888353311224	3
0	8079	2599.062592997216	1
0	8084	2602.63083420368	2
0	8090	2604.274975728011	3
0	8099	2609.851146413945	1
0	8110	2613.926205166035	2
0	8117	2615.495426752139	2
0	8133	2620.77785526216	1
0	8138	2622.781483095723	0
0	8141	2622.982122294723	1
0	8151	2626.203401171136	3
0	8158	2628.42524044961	0
0	8163	2630.954487496987	2
0	8169	2632.082486050436	3
0	8171	2633.155768837896	2
0	8178	2637.389104725559	0
0	8183	2637.933056609705	1
0	8193	2643.021566511597	1
0	8210	2649.015741598559	1
0	8228	2654.141183724859	3
0	8250	2659.588979931548	2
0	8266	2664.042320501175	2
0	8271	2664.809836575296	3
0	8274	2665.406670277472	2
0	8284	2668.523394323302	0
0	8292	2669.912025358761	3
0	8296	2671.394760870607	0
0	8298	2671.765681655378	1
0	8307	2675.323320004391	4
0	8310	2677.218060455285	0
0	8318	2680.910082411953	5
0	8322	2685.872358582447	4
0	8327	2686.861788784853	1
0	8332	2691.115119523252	3
0	8334	2691.562025245279	0
0	8338	2691.950999804773	4
0	8346	2697.775327802636	1
0	8350	2700.871465120812	3
0	8358	2703.428093285067	1
0	8360	2704.373621744218	2
0	8372	2708.524043539772	2
0	8390	2714.401255641831	3
0	8403	2719.444378710817	2
0	8407	2719.786775295855	2
0	8410	2720.669684158521	1
0	8422	2725.030081406934	1
0	8426	2725.661129431799	2
0	8428	2726.18528983928	1
0	8442	2731.33407196193	2
0	8448	2732.892127834724	0
0	8457	2737.095498505747	3
0	8470	2742.597419798607	1
0	8486	2748.032489548204	1
0	8489	2748.305110009505	1
0	8499	2750.675878579145	2
0	8504	2751.809931835743	0
0	8511	2753.550819153199	3
0	8525	2758.655962541467	4
0	8543	2764.073512916454	2
0	8551	2767.021063192285	1
0	8560	2769.932511903346	2
0	8568	2773.152810237835	3
0	8571	2773.568271646508	1
0	8578	2775.540645334404	2
0	8588	2779.316957590519	2
0	8592	2780.563304697628	0
0	8598	2781.399261882994	1
0	8603	2783.37129782571	0
0	8612	2786.530030341586	1
0	8628	2792.288411553716	3
0	8630	2793.211576785193	0
0	8638	2797.402669877164	1
0	8642	2798.011689747218	2
0	8648	2802.036715233697	2
0	8653	2803.082571914652	1
0	8664	2807.856891465838	0
0	8670	2809.035355632892	3
0	8680	2814.380561469356	1
0	8683	2815.550290029496	1
0	8693	2819.676113568014	2
0	8697	2819.86286877608	3
0	8709	2824.884825158166	0
0	8714	2824.984526852379	4
0	8715	2825.055744967773	3
0	8728	2830.02748331544	1
0	8748	2835.969739408465	2
0	8750	2837.099121975247	1
0	8757	2839.412804657594	0
0	8759	2839.904992185652	2
0	8765	2841.444357955363	1
0	8778	2846.511811387726	1
0	8796	2851.605241483078	3
0	8812	2857.199290974183	0
0	8818	2857.470454470721	1
0	8829	2861.457319480596	0
0	8838	2863.470104380977	1
0	8850	2867.359074968031	2
0	8862	2869.416133431951	3
0	8866	2871.229669626105	2
0	8869	2871.261345502107	0
0	8871	2871.755686282646	0
0	8879	2874.445622702362	3
0	8887	2879.048130635058	2
0	8889	2879.797480504263	0
0	8894	2880.160147021059	3
0	8902	2885.694117963547	1
0	8908	2888.713176092017	0
0	8912	2890.450712151362	2
0	8916	2891.002563550137	1
0	8929	2896.640768106328	1
0	8943	2901.812646436505	2
0	8956	2906.834208520595	1
0	8963	2908.957811274216	0
0	8969	2911.018907100312	1
0	8971	2911.651029437666	1
0	8975	2911.921965956455	2
0	8978	2912.712404465419	1
0	8994	2917.56152010127	1
0	9005	2921.358842162996	0
0	9010	2922.21876152966	0
0	9014	2922.964821575675	2
0	9017	2924.260023495416	0
0	9025	2928.91046826262	1
0	9034	2934.2409193255	2
0	9036	2935.609106119725	1
0	9046	2939.953553248196	1
0	9055	2943.953337901971	1
0	9066	2945.813082507811	2
0	9069	2947.322869395957	0
0	9074	2949.695976722287	1
0	9081	2951.396080192644	1
0	9096	2956.614067856455	1
0	9104	2960.079814600176	0
0	9112	2962.139780935598	1
0	9120	2964.941970310521	0
0	9130	2967.414094725856	2
0	9147	2972.422548087313	1
0	9152	2973.60769870924	1
0	9160	2975.722307497288	0
0	9170	2978.110679515637	2
0	9188	2983.862237492809	2
0	9203	2988.897532082396	3
0	9206	2989.576645566148	2
0	9208	2990.233919543563	0
0	9219	2994.394099115162	3
0	9229	2999.988835589263	1
0	9239	3003.594113316385	2
0	9246	3005.118514855626	2
0	9255	3008.682386617057	1
0	9262	3010.269052483375	3
0	9278	3015.371756714769	3
0	9290	3019.436949339112	2
0	9292	3020.228398712117	0
0	9296	3020.553441757802	3
0	9310	3026.538349221228	1
0	9315	3029.316948021762	2
0	9318	3029.713065168823	2
0	9328	3032.354737171438	1
0	9337	3035.572306256974	0
0	9343	3037.168029659427	1
0	9348	3037.834365305491	2
0	9361	3042.447983679132	1