version 3
run General-10-20240430-20:30:43-5481
attr configname General
attr datetime 20240430-20:30:43
attr datetimef 20240430-203043
attr experiment General
attr inifile omnetpp.ini
attr iterationvars $0=false
attr iterationvarsd false
attr iterationvarsf false-
attr measurement $0=false
attr network Supermarket
attr processid 5481
attr repetition 0
attr replication #0
attr resultdir results
attr runnumber 10
attr seedset 10
config network Supermarket
config repeat 10
config num-rngs 10
config **.use_random_strategy false

vector 0 Supermarket queueSizeOverTime:vector ETV
attr recordingmode vector
attr source updateQueue
attr title queueSizeOverTime
vector 1 Supermarket customerWaitingTime:vector ETV
attr interpolationmode none
attr recordingmode vector
attr source customerFinished
attr title "cust waiting time"
0	7	5.083739921451	1
0	14	10.754895558581	1
0	23	16.027158470824	0
0	28	16.166941955453	1
0	30	17.896494740737	0
0	36	21.693324420136	1
0	47	26.841929262505	1
0	62	31.963498382364	1
0	82	37.634247465991	2
0	108	43.460100220983	2
0	111	44.649259970757	1
0	114	44.887101031492	1
0	123	48.002034938196	0
0	129	48.596806808143	1
0	132	49.578240524746	0
0	145	54.171900142684	1
0	146	54.477439657668	0
0	161	59.589928260656	0
0	166	60.063222093276	1
0	182	65.272424218013	1
0	203	70.834720488173	2
0	205	71.32837959542	1
0	211	73.019059464801	0
0	222	75.840537684738	1
0	224	76.140250395519	0
0	239	81.147960889387	1
0	247	83.365339719108	0
0	259	86.959644038464	1
0	266	88.789698995417	0
0	270	90.049734487316	0
0	276	92.038631908131	1
0	293	97.349985044683	1
0	298	99.10711188184	0
0	312	102.982368630591	1
0	317	105.0504858864	0
0	319	105.197279079352	0
0	329	108.624333574438	1
0	332	110.376252469258	0
0	342	114.544357354521	1
0	352	118.949787963067	0
0	357	119.843233713881	1
0	367	124.159018976964	0
0	372	125.411979250378	1
0	387	130.590603581165	1
0	393	132.625061657048	0
0	402	135.719254354015	0
0	407	136.123177281582	1
0	423	141.918839795982	1
0	424	142.019658530132	0
0	439	146.934094763362	1
0	450	149.79843982286	0
0	452	149.874476419996	0
0	461	152.413284701995	1
0	477	157.799703815255	1
0	498	163.240168765887	2
0	509	166.214414674206	0
0	520	168.644926097711	1
0	537	173.866565412375	0
0	541	174.087180129952	1
0	558	179.117303403794	2
0	565	181.104214745109	0
0	570	181.959962790486	1
0	573	182.780716966374	0
0	577	184.569922869677	1
0	581	184.893308716594	1
0	596	190.444267089712	1
0	618	195.825340492419	2
0	639	201.354606270558	2
0	647	203.29062291794	1
0	663	207.311483169208	2
0	668	208.802334595124	1
0	686	212.893325365615	2
0	694	215.182955530004	0
0	697	215.756555966567	0
0	705	217.913764495403	1
0	719	223.123791078804	1
0	722	224.336896074244	1
0	735	227.605978841312	1
0	745	228.948885940015	2
0	748	229.898282460636	0
0	756	232.85165930947	0
0	764	234.785017751157	1
0	777	239.860412663081	1
0	795	244.871813446981	2
0	801	245.978391250136	1
0	810	248.645020899361	0
0	816	249.920234011718	1
0	829	254.027222978883	1
0	836	255.277356720761	2
0	842	257.257050969171	0
0	848	259.17332227854	0
0	850	259.254637981766	0
0	856	260.943050095577	1
0	861	263.212135642074	1
0	870	265.9544397064	1
0	883	271.062357476212	1
0	903	276.963370576965	2
0	908	277.910044681279	0
0	921	282.758249340112	1
0	932	285.401559288146	0
0	934	286.144785734132	1
0	942	288.569710320326	1
0	953	292.308486581778	0
0	963	294.20998837822	1
0	969	296.39939020993	0
0	978	299.729861240134	0
0	982	299.83476789086	1
0	991	304.019488870514	0
0	994	304.512029437115	0
0	998	305.211020343237	1
0	1008	310.803825750946	1
0	1019	315.131564133456	0
0	1026	316.433767627225	1
0	1040	321.576367942848	1
0	1050	324.293358539812	0
0	1063	327.510209244442	1
0	1077	332.860719867167	0
0	1083	333.456589124397	1
0	1090	335.81010509352	0
0	1101	339.058885774807	1
0	1103	339.550939782289	0
0	1117	344.199337258701	1
0	1124	346.440478011382	0
0	1137	349.947748866862	1
0	1159	355.736589264589	2
0	1161	356.116818411972	1
0	1183	361.466985878999	2
0	1194	365.030329939793	0
0	1204	367.312604221747	1
0	1208	368.306209812523	0
0	1214	369.670369101685	0
0	1222	373.279213919536	1
0	1237	379.193450890364	1
0	1241	379.236226518172	1
0	1246	380.997399006736	0
0	1256	384.390073892077	0
0	1261	384.55064346455	1
0	1276	390.111035331618	1
0	1284	393.032689755433	0
0	1294	395.203090934083	1
0	1296	396.335921204064	0
0	1310	400.666588955326	1
0	1330	406.353133917088	2
0	1333	407.366496042463	1
0	1340	408.758986899511	0
0	1342	409.174457614774	0
0	1350	411.881169137545	1
0	1366	417.873327175854	1
0	1375	420.617426087848	0
0	1384	423.268363108859	1
0	1404	429.18004351435	0
0	1408	429.200713765109	1
0	1416	431.896142221172	0
0	1426	434.337428887375	1
0	1443	439.509356699884	2
0	1450	441.062060243566	0
0	1461	444.970352064702	1
0	1465	445.0124111888	1
0	1483	450.068264074158	2
0	1484	450.417976159836	0
0	1500	455.365931151901	1
0	1501	455.51650550915	0
0	1517	460.476719052531	1
0	1524	463.137882419281	0
0	1535	465.789359352784	1
0	1553	469.915086181952	0
0	1560	471.246338485507	1
0	1570	474.476365561949	1
0	1580	476.905278559774	2
0	1585	478.252159054856	0
0	1591	480.339960536689	1
0	1600	482.159536081599	1
0	1602	483.187391616871	0
0	1617	487.800637344131	1
0	1626	490.455206774059	0
0	1636	493.000760949682	1
0	1642	495.278266449109	0
0	1655	498.779050165554	1
0	1665	501.638780525771	0
0	1675	504.558648563222	1
0	1682	507.193381250603	0
0	1689	509.587944229482	0
0	1693	509.616849313722	1
0	1698	511.365415276144	0
0	1707	515.347002737223	1
0	1708	515.471238171216	0
0	1715	518.515430799684	0
0	1717	518.772717337706	0
0	1721	521.20662102918	1
0	1728	526.23716213391	1
0	1739	532.09676701878	1
0	1750	535.82328382693	0
0	1757	537.536546542074	1
0	1763	539.665298491017	0
0	1773	543.096991202792	1
0	1776	544.599245618677	0
0	1789	548.914396465754	1
0	1802	554.003402762346	1
0	1820	559.388974887084	2
0	1824	560.486371464094	0
0	1838	564.406397436045	1
0	1858	569.457364309577	2
0	1860	569.568330681182	0
0	1865	571.699195586841	1
0	1877	574.892436046617	1
0	1882	576.505743819402	0
0	1896	580.869279914301	1
0	1900	581.706806265514	0
0	1909	584.785692794366	1
0	1916	585.96306322445	1
0	1927	589.047028224448	0
0	1936	591.606166364391	1
0	1955	597.046421000034	2
0	1966	600.491697522111	0
0	1971	602.005909380503	0
0	1975	602.83529482805	1
0	1990	608.539752368581	1
0	1992	609.075571621769	0
0	2000	612.222075300057	0
0	2007	614.260210731065	1
0	2022	619.756987463914	1
0	2023	620.094910438287	0
0	2028	621.531409048592	1
0	2038	624.965924832854	0
0	2043	625.490583041215	1
0	2052	628.916162519599	0
0	2056	630.696756430201	0
0	2060	630.991197359979	1
0	2071	636.436373989794	1
0	2085	641.52680677641	1
0	2100	646.481368624953	0
0	2105	646.80036969343	1
0	2112	648.834298306028	0
0	2124	652.743846792726	1
0	2125	652.812189708461	0
0	2142	657.770391436525	1
0	2147	659.108690628549	0
0	2163	662.810390128753	1
0	2181	668.093530486802	2
0	2195	672.236747870337	0
0	2203	674.084423288469	1
0	2215	678.280124149983	0
0	2223	680.077065522083	1
0	2233	683.333598130379	1
0	2243	685.448801094665	2
0	2248	686.951489689408	0
0	2251	687.201108751699	0
0	2263	691.401325232115	1
0	2277	697.376760054844	1
0	2281	698.957414849661	0
0	2293	702.803693460299	1
0	2312	708.301626261788	2
0	2317	709.856425702921	0
0	2326	711.717782950958	1
0	2334	713.543486351146	1
0	2355	719.542418619617	2
0	2367	723.078219719811	0
0	2371	723.689650253974	1
0	2375	724.967097055516	0
0	2379	725.125112432287	1
0	2393	730.308391433208	1
0	2395	730.773403866913	1
0	2410	734.962122439289	0
0	2414	735.695236857514	1
0	2433	740.884910389547	2
0	2439	742.280390555504	0
0	2452	746.295681060523	1
0	2461	749.502838269575	0
0	2470	751.890361124415	1
0	2475	753.091271401498	0
0	2477	753.796151249667	1
0	2481	755.010877357564	0
0	2489	757.606947218532	1
0	2504	763.093838698928	1
0	2524	768.403428514487	2
0	2543	773.98086988693	2
0	2552	775.681026647447	0
0	2555	776.484318774889	1
0	2564	779.422577700577	1
0	2571	781.577481482408	1
0	2584	784.782255801604	2
0	2588	786.129867628329	0
0	2592	787.246620112794	0
0	2600	790.630329246166	1
0	2615	796.362589688039	1
0	2617	796.747961652697	0
0	2619	796.969328781938	0
0	2626	800.458075203814	1
0	2631	801.624575240536	1
0	2643	807.086959896374	0
0	2647	807.573124438756	1
0	2652	809.467385039431	0
0	2665	813.302484897663	1
0	2679	818.979802367509	1
0	2682	820.456434487827	0
0	2699	824.7896019686	1
0	2702	826.097539816167	0
0	2715	830.23267120472	1
0	2734	836.203063619089	2
0	2735	836.233290568692	1
0	2754	841.336092308162	2
0	2760	843.038456551147	0
0	2774	846.792131368535	1
0	2778	847.872074205312	1
0	2783	849.262713974689	0
0	2794	851.951867593451	1
0	2800	853.43047563126	0
0	2816	857.91350949765	1
0	2819	858.842148535068	0
0	2832	862.85703408194	0
0	2838	863.751125247682	1
0	2851	869.197605240158	0
0	2855	869.271285931578	1
0	2871	874.489558190571	1
0	2891	879.624476910101	2
0	2899	881.660442601655	0
0	2902	882.650824938898	0
0	2910	885.603547259465	1
0	2911	885.741456972317	0
0	2926	891.310590751933	1
0	2932	894.473605556411	1
0	2937	895.5322463779	0
0	2943	897.170566308776	1
0	2961	902.557738936039	1
0	2964	903.349206386364	0
0	2972	906.673141722566	0
0	2977	907.808572957058	1
0	2979	908.273461066533	0
0	2991	913.10801097704	1
0	3002	916.767108719562	0
0	3009	918.964906499254	1
0	3010	919.516632770883	0
0	3022	924.437890485393	1
0	3042	930.101167534709	1
0	3060	935.906896143684	2
0	3075	940.784202612585	1
0	3081	941.159876644609	2
0	3088	943.570416512199	1
0	3100	946.239450084974	2
0	3105	947.573998115607	0
0	3108	948.500940580268	0
0	3118	951.972210690842	1
0	3126	955.338388235191	0
0	3134	957.933608168035	1
0	3139	960.306980142715	0
0	3148	963.887412905458	1
0	3149	964.232741925397	0
0	3162	969.377911955814	1
0	3173	974.08363289095	1
0	3180	975.01010402152	1
0	3198	980.743099043375	2
0	3203	982.235554802463	0
0	3207	982.804293753813	1
0	3217	985.994649698256	1
0	3225	987.93701165868	0
0	3238	991.804033724122	1
0	3241	992.787816078981	0
0	3257	997.729843379693	1
0	3279	1003.629731095858	2
0	3280	1003.838774462111	0
0	3294	1008.556798819806	1
0	3300	1009.064276984191	1
0	3305	1010.462913320513	0
0	3320	1014.085623316696	1
0	3341	1019.870724629141	2
0	3343	1020.725652399477	1
0	3362	1025.053307184247	2
0	3370	1027.175608693038	0
0	3375	1028.573366655035	0
0	3381	1030.62974460376	1
0	3395	1035.98610358615	1
0	3403	1039.062533216782	0
0	3410	1040.669553871155	1
0	3416	1041.748969734409	1
0	3436	1047.281781902998	2
0	3451	1052.112638226007	0
0	3456	1052.645837619663	1
0	3469	1056.865790242674	0
0	3475	1058.45641137985	1
0	3479	1059.027510671765	1
0	3498	1063.750741825201	2
0	3499	1063.968606837321	0
0	3517	1069.346975346789	1
0	3534	1074.778153198999	2
0	3535	1074.843690850883	0
0	3538	1074.968432996999	0
0	3550	1080.370550697432	1
0	3563	1085.645728625594	1
0	3569	1086.26131484075	1
0	3575	1088.330393559761	1
0	3591	1091.616330090207	2
0	3603	1095.424681467582	0
0	3605	1095.499983486366	0
0	3609	1096.93560054665	1
0	3624	1102.198966335501	1
0	3643	1107.741246948713	2
0	3651	1109.721950837758	0
0	3654	1110.958237703777	1
0	3662	1112.823511473365	1
0	3665	1113.868987921503	1
0	3673	1115.696610833745	0
0	3677	1117.127755065794	0
0	3684	1118.715332668271	1
0	3701	1124.399956939273	1
0	3718	1129.460863188371	0
0	3723	1129.888250107408	1
0	3731	1132.8482136518	0
0	3738	1135.071946360981	0
0	3742	1135.373664412877	1
0	3753	1139.742581136055	0
0	3759	1141.340357329926	1
0	3772	1146.551705216986	1
0	3794	1151.963353353084	2
0	3801	1153.722621467892	0
0	3816	1157.953018934929	1
0	3824	1161.169919333534	0
0	3830	1162.624387991612	1
0	3834	1162.981430786426	1
0	3854	1168.682757304047	2
0	3871	1173.707928871034	2
0	3889	1179.028810599117	2
0	3893	1180.083323292199	0
0	3896	1180.903443889458	1
0	3898	1181.145784010874	1
0	3910	1184.102337666784	1
0	3911	1184.405108319126	0
0	3924	1188.559954927302	1
0	3928	1189.163222229803	1
0	3935	1191.034529072461	0
0	3946	1194.27462854399	1
0	3960	1198.966948103857	0
0	3964	1199.546948978907	1
0	3972	1201.206355481405	0
0	3979	1203.92057501245	0
0	3984	1204.87835343694	1
0	3999	1210.709257204548	1
0	4014	1214.944552838215	0
0	4020	1215.949049388288	1
0	4026	1217.667482287039	0
0	4032	1220.15378006047	0
0	4039	1221.606284114296	1
0	4055	1227.345258764686	1
0	4065	1230.476999550356	0
0	4076	1233.176548506129	1
0	4097	1238.966274178815	2
0	4102	1239.761570146304	1
0	4121	1244.370114430083	0
0	4125	1244.723636955484	1
0	4129	1245.922281358969	0
0	4131	1246.180035550028	0
0	4141	1250.31634225463	1
0	4155	1255.534911025776	1
0	4176	1261.022925583408	2
0	4182	1263.077193854488	0
0	4187	1264.826000101743	0
0	4194	1266.643871965348	1
0	4199	1267.835797664005	0
0	4206	1271.703530757568	1
0	4210	1271.898338499009	1
0	4227	1277.77589404373	1
0	4240	1281.558960516235	0
0	4248	1283.21102423104	1
0	4256	1285.916011157324	0
0	4268	1288.940518571991	1
0	4272	1290.219305636357	0
0	4278	1292.096230920051	0
0	4286	1294.353159342423	1
0	4304	1299.593792166091	1
0	4308	1300.904949657616	0
0	4321	1305.445116597224	1
0	4337	1309.70284642011	0
0	4341	1311.14576785231	0
0	4345	1311.269218886267	1
0	4346	1311.875475059959	0
0	4357	1316.794430674748	1
0	4359	1317.493133817912	0
0	4369	1322.1807714696	1
0	4377	1325.619019136994	0
0	4385	1327.771652263119	1
0	4399	1332.909175883043	1
0	4419	1338.717446289487	2
0	4426	1340.684329607403	0
0	4441	1344.683272102145	1
0	4445	1345.748777199415	1
0	4453	1347.618864488318	0
0	4464	1350.463067909466	1
0	4470	1352.457981107985	0
0	4482	1355.702402987514	1
0	4502	1360.934157969194	2
0	4510	1363.449847648614	0
0	4516	1365.824486179505	1
0	4518	1366.140556785391	0
0	4523	1366.927441149947	1
0	4529	1369.258322302014	0
0	4534	1372.000959559107	0
0	4539	1372.736798211231	1
0	4549	1378.326483659444	1
0	4560	1382.892240708342	0
0	4565	1383.463970606912	1
0	4566	1383.890157634389	0
0	4571	1386.65209170163	0
0	4577	1389.142411311621	1
0	4590	1395.13460200629	1
0	4598	1398.740914767955	0
0	4601	1400.176267243921	0
0	4605	1400.89551476552	1
0	4616	1406.629938957047	1
0	4634	1412.574491743928	1
0	4636	1412.950247792644	0
0	4648	1418.121862519065	0
0	4652	1418.211008786921	1
0	4667	1423.725998276145	1
0	4671	1424.961269294377	0
0	4684	1428.836452612419	1
0	4697	1433.185390689057	0
0	4705	1434.577952745369	1
0	4710	1436.155991253093	0
0	4722	1439.843718294751	1
0	4729	1442.306327896193	0
0	4736	1444.482868678169	0
0	4743	1445.480462757636	1
0	4751	1448.35146680183	0
0	4757	1450.491754544199	1
0	4766	1454.010252668871	0
0	4774	1455.932193231768	1
0	4775	1455.963065772897	0
0	4788	1461.827665835851	1
0	4802	1467.264934678096	1
0	4803	1467.915305296424	0
0	4809	1469.186862808419	0
0	4819	1472.686552190687	1
0	4833	1477.741269571706	1
0	4841	1480.956792619661	0
0	4848	1482.751203261781	1
0	4858	1485.387732240138	0
0	4860	1485.45968719339	0
0	4869	1488.540968940826	1
0	4877	1490.991512200911	0
0	4884	1493.81628215732	1
0	4899	1499.534022160805	1
0	4900	1500.082891506726	0
0	4917	1504.95537808421	1
0	4925	1507.591265091558	0
0	4934	1510.147899765521	1
0	4945	1512.495361681562	0
0	4952	1514.453252309816	0
0	4958	1515.461714996723	1
0	4963	1517.618498050259	0
0	4971	1520.510820973897	1
0	4987	1526.076821357244	1
0	4995	1528.571058353759	0
0	5003	1531.280762745998	1
0	5023	1536.642426561098	2
0	5026	1537.673495650642	1
0	5039	1540.381243414712	0
0	5047	1542.420111976563	1
0	5052	1544.255602199117	0
0	5059	1547.061013516621	0
0	5061	1547.265179205801	0
0	5066	1548.260082075139	1
0	5076	1553.714245629729	1
0	5083	1556.588067220523	0
0	5086	1557.416016268192	0
0	5093	1559.452406628988	1
0	5103	1564.51284455764	1
0	5119	1569.60379572655	1
0	5128	1572.785900344024	0
0	5139	1575.286502185277	1
0	5158	1580.52967635449	2
0	5177	1586.170137794455	2
0	5182	1588.163619993369	0
0	5196	1591.239276979351	1
0	5203	1593.382907208869	1
0	5209	1595.090357714334	0
0	5219	1597.11219693534	1
0	5224	1598.895768717282	1
0	5229	1600.665191286942	0
0	5236	1602.22180387983	1
0	5246	1604.755388050456	0
0	5255	1607.39085963997	1
0	5276	1612.858237631386	2
0	5293	1618.129931816133	2
0	5299	1619.840183689376	0
0	5308	1622.182505801087	1
0	5315	1623.729924826185	1
0	5317	1625.131396459994	1
0	5334	1629.348570362898	2
0	5345	1633.012080432144	0
0	5352	1634.857147715403	1
0	5356	1634.911515559536	1
0	5358	1636.130124260203	0
0	5372	1640.459015559638	1
0	5384	1643.337570934558	0
0	5386	1643.463394584832	0
0	5393	1646.245270420099	1
0	5396	1646.802806104183	0
0	5400	1649.441981310141	0
0	5406	1652.165317459265	1
0	5417	1657.646290220553	1
0	5421	1659.40891312633	0
0	5430	1663.129118857672	1
0	5444	1668.497131137177	1
0	5459	1672.430441751961	0
0	5465	1673.593674798729	1
0	5486	1678.900553331245	2
0	5498	1682.294625201381	1
0	5500	1682.598824873683	0
0	5510	1684.44190631737	1
0	5522	1688.478196568554	0
0	5531	1690.366833257256	1
0	5541	1693.462639817851	0
0	5552	1696.337384055136	1
0	5557	1697.554989570173	0
0	5562	1699.7383346695	0
0	5570	1701.632405237761	1
0	5578	1704.842791465228	0
0	5586	1707.365523614921	1
0	5602	1712.636381286662	1
0	5622	1717.687588378554	2
0	5627	1719.258342952702	0
0	5640	1722.716052188305	1
0	5648	1724.922631627416	0
0	5657	1727.86648380314	1
0	5658	1728.297275248101	1
0	5678	1733.687274268596	2
0	5688	1736.418536007522	0
0	5699	1739.149302296807	1
0	5708	1741.904290930483	0
0	5719	1744.625769062201	1
0	5725	1747.184236187372	0
0	5728	1747.630497627892	0
0	5736	1750.218918430619	1
0	5738	1750.910075798864	0
0	5750	1755.984918482136	1
0	5754	1757.574829950115	1
0	5763	1761.188909516903	0
0	5767	1761.978256870527	1
0	5775	1765.13576711016	0
0	5783	1767.333476490807	1
0	5800	1772.394009128912	1
0	5819	1777.647574767005	2
0	5830	1781.331184637384	0
0	5833	1781.780861769802	1
0	5839	1782.878209870076	1
0	5858	1788.361238146547	0
0	5862	1788.611822235631	1
0	5875	1792.344694877508	0
0	5883	1794.23628744809	1
0	5884	1794.679897236872	0
0	5892	1797.501853789901	0
0	5897	1799.268890562234	0
0	5902	1799.950160155073	1
0	5914	1805.663687384455	1
0	5929	1810.836406920106	1
0	5936	1812.854257294793	0
0	5949	1816.179111803184	1
0	5963	1820.166632731445	0
0	5972	1821.884218130261	1
0	5977	1823.678195100979	0
0	5989	1827.191477541579	1
0	5999	1829.907134206849	0
0	6001	1830.647448542993	0
0	6008	1832.462864620611	1
0	6009	1832.642420244288	0
0	6025	1837.870971675264	1
0	6035	1841.887703201036	0
0	6041	1843.784801504808	1
0	6042	1844.404718561215	0
0	6054	1849.015804520576	1
0	6059	1850.833594062715	0
0	6070	1854.663681204664	1
0	6086	1860.589786663885	1
0	6093	1863.137974776327	0
0	6105	1866.105999607594	1
0	6125	1871.632865942317	2
0	6128	1872.719049333711	0
0	6135	1874.533464319656	0
0	6142	1877.011192933191	1
0	6150	1880.145932612009	0
0	6157	1882.67661662004	1
0	6162	1884.4318680577	1
0	6175	1887.724697998958	1
0	6194	1893.13982958789	2
0	6213	1898.226541362703	2
0	6215	1899.00746487314	1
0	6232	1903.498223490082	2
0	6243	1906.55779508932	1
0	6251	1908.178550653626	0
0	6256	1908.736409761943	1
0	6257	1909.474607651357	0
0	6273	1914.256161472062	1
0	6285	1918.224894381479	1
0	6290	1919.483822331065	0
0	6294	1919.55239558802	1
0	6300	1921.56413350266	0
0	6311	1925.00812463346	1
0	6330	1930.046791152796	2
0	6331	1930.160673369421	0
0	6333	1930.619158056332	1
0	6340	1932.986078872229	0
0	6347	1935.645794177661	1
0	6351	1937.519552252255	0
0	6353	1937.797259892223	0
0	6359	1941.14760777168	1
0	6362	1943.02850434801	0
0	6369	1946.649333895184	1
0	6381	1951.71000359091	1
0	6394	1956.836467644666	0
0	6398	1957.659840526525	1
0	6414	1962.825156722916	1
0	6421	1964.681854952243	0
0	6434	1968.287930241553	1
0	6454	1973.992203337606	2
0	6459	1975.357916137204	1
0	6471	1979.145839841221	0
0	6477	1979.63978551724	1
0	6496	1985.207894249121	2
0	6508	1987.665823379878	0
0	6521	1991.16203256324	1
0	6527	1992.793841419041	0
0	6541	1996.747342961608	1
0	6560	2002.202697930625	2
0	6571	2005.25498013664	1
0	6577	2006.952789387898	1
0	6584	2007.941149460618	2
0	6585	2008.390063906204	1
0	6589	2008.751606168576	0
0	6603	2013.740765225141	0
0	6607	2013.753385733348	1
0	6619	2018.943239462212	0
0	6623	2019.680676907302	1
0	6642	2025.50705251773	1
0	6663	2030.984270506307	2
0	6673	2034.000608573202	0
0	6675	2034.130433134851	1
0	6683	2036.506047899836	1
0	6694	2040.112405547057	0
0	6697	2041.012455574703	0
0	6703	2042.391435236206	1
0	6720	2047.495295644739	1
0	6731	2051.644619398168	0
0	6737	2053.145746832715	1
0	6754	2058.57547755586	0
0	6758	2058.702056871263	1
0	6767	2061.731879175759	0
0	6776	2064.60325837182	1
0	6785	2067.16408923152	0
0	6789	2068.342517537067	0
0	6793	2069.696096822505	0
0	6797	2069.869712338551	1
0	6805	2074.881357622567	0
0	6809	2075.526859333507	1
0	6813	2078.127944591573	0
0	6815	2078.824654386848	0
0	6819	2081.275365122828	1
0	6824	2087.207816298586	0
0	6828	2087.209907393205	1
0	6833	2091.808528033901	0
0	6837	2093.106892301003	1
0	6845	2098.615013800096	1
0	6857	2103.862454038114	1
0	6872	2109.640627560905	1
0	6886	2114.202948761173	0
0	6892	2114.822011420038	1
0	6895	2115.83941083879	0
0	6903	2118.554722304922	0
0	6905	2118.896454919712	0
0	6910	2120.277049882571	1
0	6918	2125.024400658789	0
0	6922	2125.421141824686	1
0	6927	2127.854163588957	0
0	6931	2130.69605961768	0
0	6935	2130.802149100929	1
0	6942	2136.207883632976	1
0	6953	2141.866849068554	1
0	6969	2147.271552801134	1
0	6982	2151.127672774136	0
0	6989	2152.476976329695	1
0	7006	2157.665127620102	2
0	7015	2160.552759907791	0
0	7023	2162.690261664569	1
0	7032	2165.584850084035	0
0	7035	2165.996670488154	1
0	7045	2167.961158995984	1
0	7067	2173.954612569652	2
0	7074	2176.050467693016	0
0	7080	2178.459932517029	0
0	7085	2179.022380302894	1
0	7099	2185.018196114573	1
0	7112	2189.195989388855	0
0	7117	2190.28842153377	1
0	7121	2191.37610919343	0
0	7126	2192.802662779462	1
0	7138	2195.531904890901	1
0	7143	2197.200095686714	0
0	7156	2200.958853784949	1
0	7166	2204.056777387625	0
0	7175	2206.671004731208	1
0	7177	2207.390637980076	0
0	7194	2212.334086049348	1
0	7199	2214.187196265211	0
0	7208	2216.695119822515	0
0	7212	2217.467761012725	1
0	7213	2217.735629974632	0
0	7225	2222.648106177104	1
0	7231	2224.887250345782	0
0	7242	2228.51640085387	1
0	7257	2234.488267005421	1
0	7272	2239.538062409961	0
0	7278	2239.998128132429	1
0	7292	2244.277398664969	0
0	7300	2245.473629162181	1
0	7313	2249.472051592543	0
0	7316	2250.123343343263	0
0	7320	2250.726901940303	1
0	7335	2255.751422889764	1
0	7346	2259.575514863247	0
0	7356	2261.707500606776	1
0	7366	2265.480546128702	0
0	7373	2267.253208683106	1
0	7392	2272.93906093971	2
0	7404	2276.56862499367	1
0	7406	2277.288818795699	0
0	7413	2278.821700243979	1
0	7422	2281.036791985857	0
0	7425	2281.346908276203	0
0	7434	2284.553887591233	1
0	7442	2287.394036123764	0
0	7450	2289.971379409313	1
0	7451	2290.429875776521	0
0	7463	2295.443491733169	1
0	7471	2299.199433644421	0
0	7478	2300.463554588148	1
0	7482	2302.03547027393	0
0	7492	2305.889144602699	1
0	7507	2311.779808654684	1
0	7521	2316.01195448975	0
0	7526	2317.272284980399	1
0	7545	2322.342552977383	2
0	7566	2327.43099034345	2
0	7578	2331.38208830962	1
0	7588	2333.164016454483	2
0	7607	2338.300952002523	0
0	7614	2339.107238955565	1
0	7616	2339.511636338199	1
0	7618	2339.658956916306	0
0	7626	2343.424544712415	0
0	7632	2344.38165194262	1
0	7647	2349.786534558518	1
0	7667	2354.896864300829	2
0	7676	2357.367438487824	1
0	7687	2359.998387597504	2
0	7697	2363.27887560544	1
0	7708	2365.440191238888	2
0	7716	2367.607575194562	0
0	7728	2371.07406625408	1
0	7729	2372.248588325924	0
0	7746	2377.032061319335	1
0	7765	2382.878488162069	2
0	7770	2384.405533561481	1
0	7787	2388.253009675539	2
0	7789	2389.053271336483	1
0	7809	2393.388100074607	2
0	7827	2398.940629494379	2
0	7842	2402.706880706131	1
0	7845	2403.552119633878	1
0	7851	2404.101756589723	2
0	7872	2409.670305555922	2
0	7873	2410.185453570218	1
0	7893	2415.156015420103	2
0	7897	2416.08239526639	1
0	7902	2417.320210577335	1
0	7904	2417.969794924834	0
0	7910	2419.793915227518	0
0	7915	2420.283534966878	1
0	7929	2425.827227133562	1
0	7949	2431.027717739579	2
0	7958	2433.657200736578	1
0	7962	2435.162857887453	1
0	7965	2435.545547125863	0
0	7969	2436.05141732842	1
0	7991	2441.791057063502	2
0	7998	2443.888854726338	1
0	8011	2447.306645549836	2
0	8016	2449.114471802376	1
0	8024	2451.815470137987	0
0	8026	2451.987497209342	1
0	8031	2452.621637526203	1
0	8050	2458.468230077067	2
0	8058	2460.703637358618	0
0	8068	2463.729441948004	0
0	8072	2463.915606351338	1
0	8086	2469.015691575829	1
0	8091	2470.712403914078	1
0	8099	2472.757451690622	0
0	8103	2473.54629899841	0
0	8110	2474.917283659803	1
0	8120	2479.043559622139	0
0	8127	2480.773371909514	1
0	8129	2481.599140403096	0
0	8132	2482.549806968661	0
0	8138	2486.059701787542	1
0	8150	2491.318716561656	1
0	8151	2491.639476352606	0
0	8164	2497.281937272289	1
0	8165	2497.609683840537	0
0	8175	2502.588673868218	1
0	8184	2506.672295110186	0
0	8190	2507.622946206482	1
0	8192	2508.895408518498	0
0	8204	2513.446485971102	1
0	8218	2519.209016840441	1
0	8227	2521.814704987921	0
0	8238	2525.140984708911	1
0	8248	2528.409569445765	0
0	8253	2529.581462375471	0
0	8258	2530.300167010168	1
0	8259	2530.36915635504	0
0	8266	2533.234945167442	0
0	8272	2535.733125052184	1
0	8273	2537.145126359539	0
0	8281	2541.01248722966	1
0	8295	2546.973524862436	1
0	8306	2551.102683771987	0
0	8314	2552.969868858579	1
0	8316	2554.004952162856	0
0	8326	2557.978245303269	1
0	8327	2558.874517403195	0
0	8336	2563.192233860493	0
0	8341	2563.546304229415	1
0	8352	2569.122913997621	1
0	8362	2573.322173958181	0
0	8368	2574.260058263317	1
0	8380	2579.531470512041	0
0	8384	2579.932276828448	1
0	8397	2585.022586401785	1
0	8405	2587.093404144981	0
0	8412	2588.479958154027	0
0	8419	2590.464023827808	1
0	8436	2596.291737857275	1
0	8454	2601.564658022255	0
0	8458	2602.01586931618	1
0	8478	2607.323094418972	2
0	8480	2607.624379999937	0
0	8484	2609.261124680752	1
0	8486	2609.929783156839	0
0	8488	2610.02729806735	0
0	8494	2613.249952461804	1
0	8503	2618.389686237556	1
0	8519	2624.010968906573	1
0	8538	2629.390856591986	2
0	8542	2629.913602203947	1
0	8559	2634.39129750058	0
0	8564	2635.070767627332	1
0	8587	2640.384533132195	2
0	8590	2641.49982292927	1
0	8600	2644.028318800616	0
0	8603	2644.387198226412	0
0	8610	2646.111171115657	1
0	8611	2646.578759295982	0
0	8616	2648.688996173326	0
0	8622	2652.025654311992	1
0	8629	2655.91347381531	0
0	8634	2657.120549792658	1
0	8647	2662.78552674479	1
0	8662	2668.388089487796	1
0	8680	2673.780729385094	2
0	8691	2676.988589298797	1
0	8702	2679.004471591209	2
0	8703	2679.06998451124	0
0	8718	2684.061724812259	1
0	8731	2687.193661672763	0
0	8740	2689.954212857877	1
0	8759	2694.872959253381	0
0	8764	2695.76258612401	1
0	8783	2701.369807506214	2
0	8791	2703.47498577391	1
0	8795	2704.466422780886	1
0	8804	2706.389407325537	2
0	8809	2707.43289861968	0
0	8826	2712.370624628385	1
0	8830	2713.004165987719	0
0	8837	2715.110250604575	1
0	8845	2717.536563637202	1
0	8851	2719.242099772791	0
0	8858	2722.477916479112	0
0	8863	2722.987229965861	1
0	8868	2725.337488420891	0
0	8877	2728.740030351329	1
0	8880	2730.44063669618	0
0	8884	2731.980425559684	0
0	8890	2733.896427267698	1
0	8900	2738.986490450801	1
0	8903	2740.172536942062	0
0	8912	2744.394105977147	1
0	8928	2749.575302353595	1
0	8931	2750.22171271092	0
0	8939	2753.3694108699	0
0	8942	2753.650298223249	0
0	8946	2755.050768339309	1
0	8947	2755.051474398818	0
0	8955	2760.096560160863	1
0	8963	2764.506426832524	0
0	8968	2765.793061080855	1
0	8979	2770.990258560284	1
0	8989	2775.012587171165	0
0	8996	2776.262603023323	1
0	9012	2781.56242307392	1
0	9033	2786.693824311952	2
0	9038	2788.604115173686	0
0	9051	2791.988846012392	1
0	9055	2792.844028805732	1
0	9070	2797.45136596344	0
0	9076	2797.717750808923	1
0	9083	2799.675262010191	0
0	9095	2802.949146605796	1
0	9096	2803.071663337295	0
0	9106	2806.732315708767	0
0	9114	2808.835976464907	1
0	9126	2813.936105868315	0
0	9128	2813.945851886645	0
0	9132	2814.173328383128	1
0	9136	2816.304396537017	0
0	9142	2819.648449934088	1
0	9146	2822.390477457666	0
0	9151	2824.747855075402	1
0	9164	2830.520286631072	1
0	9176	2836.228673650301	0
0	9180	2836.290409627603	1
0	9184	2837.430523387855	0
0	9194	2842.106409975327	1
0	9200	2845.172523445915	0
0	9207	2847.157959951553	1
0	9220	2852.492884155944	0
0	9224	2852.839283735025	1
0	9244	2858.802577365422	1
0	9248	2859.974304025875	0
0	9260	2864.503524826839	1
0	9266	2866.106471820503	0
0	9279	2869.913371297297	1
0	9295	2874.519257165257	0
0	9301	2875.350599380442	1
0	9313	2879.596545370643	0
0	9321	2880.756610553478	1
0	9336	2886.174970033578	2
0	9339	2887.308687213808	0
0	9341	2887.423038874638	0
0	9352	2891.278823446016	1
0	9368	2896.848087370628	1
0	9387	2901.940072034718	2
0	9393	2903.798572225844	0
0	9403	2907.093360352097	1
0	9404	2907.108837985668	1
0	9407	2908.625500739435	0
0	9421	2912.197760958923	1
0	9425	2913.434203216342	0
0	9439	2918.177537984913	1
0	9445	2919.745913889956	1
0	9461	2923.562718281289	2
0	9466	2924.894646141794	0
0	9468	2925.154607296689	0
0	9478	2929.053223975934	1
0	9494	2934.494452505605	1
0	9503	2937.505352867766	1
0	9513	2939.609241945669	2
0	9521	2941.934919404563	0
0	9533	2945.219635849819	1
0	9550	2950.066582577303	0
0	9556	2951.12184519996	1
0	9572	2955.774852849311	0
0	9575	2956.286334403441	0
0	9580	2956.759159603157	1
0	9596	2962.715383645148	1
0	9602	2964.509212487959	0
0	9605	2964.614627283064	1
0	9610	2965.982998708613	0
0	9618	2968.091390307761	1
0	9635	2973.987091728254	1
0	9638	2974.78265034163	0
0	9644	2976.594906138141	0
0	9652	2979.195572223049	1
0	9662	2983.687629740802	0
0	9668	2984.258768662112	1
0	9680	2989.49819032941	1
0	9687	2991.687551918906	0
0	9700	2995.062853270443	1
0	9702	2996.062261368726	0
0	9706	2996.74299414875	0
0	9716	3000.379933223594	1
0	9730	3005.42943008896	1
0	9749	3010.932311146986	2
0	9763	3015.175430593781	0
0	9766	3015.506910037367	1
0	9772	3016.170300974977	1
0	9790	3021.287699393929	2
0	9794	3022.583770876983	0
0	9807	3026.750916807215	1
0	9813	3028.444479531259	0
0	9826	3032.599151740783	1
0	9843	3037.881042341237	2
0	9851	3040.68886860821	1
0	9857	3042.040671965923	1
0	9864	3043.163120153827	2
0	9878	3047.179251329974	0