version 3
run General-14-20240428-16:41:48-11297
attr configname General
attr datetime 20240428-16:41:48
attr datetimef 20240428-164148
attr experiment General
attr inifile omnetpp.ini
attr iterationvars $0=false
attr iterationvarsd false
attr iterationvarsf false-
attr measurement $0=false
attr network Supermarket
attr processid 11297
attr repetition 4
attr replication #4
attr resultdir results
attr runnumber 14
attr seedset 4
config network Supermarket
config repeat 10
config seed-set 4
config num-rngs 10
config **.use_random_strategy false

vector 0 Supermarket queueSizeOverTime:vector ETV
attr recordingmode vector
attr source updateQueue
attr title queueSizeOverTime
vector 1 Supermarket customerWaitingTime:vector ETV
attr interpolationmode none
attr recordingmode vector
attr source customerFinished
attr title "cust waiting time"
0	7	5.407687024679	1
0	14	10.519857759355	1
0	25	15.823770067888	1
0	27	16.580236164504	0
0	35	20.904632583375	0
0	39	21.347740117927	1
0	50	26.749465095811	1
0	65	32.419259872521	1
0	68	32.766337205658	0
0	83	37.952759166016	1
0	91	40.145226015126	0
0	103	43.351740643616	1
0	109	45.503561281949	0
0	114	46.962501304806	0
0	120	48.934565946927	1
0	122	49.672936692136	0
0	133	54.099844758866	1
0	138	55.427466912779	0
0	150	59.232189903736	1
0	165	64.472863873934	1
0	169	66.294170584412	0
0	183	69.591065114133	1
0	205	75.457560089884	2
0	212	77.840764423951	0
0	223	80.483521931573	1
0	224	80.836513109273	1
0	231	82.416897070944	0
0	241	85.48774630041	1
0	252	89.00343345094	0
0	255	90.275195338299	0
0	260	90.786856648514	1
0	266	93.238303151218	0
0	275	96.121395220051	1
0	291	101.327003069923	1
0	308	106.574044628886	0
0	312	107.150295910428	1
0	324	111.084282354571	0
0	331	112.392055594598	1
0	339	114.689148984267	0
0	350	117.599459302847	1
0	368	122.672260640424	2
0	386	127.810259159307	0
0	392	128.123449125096	1
0	412	133.687822543552	2
0	415	135.242849148347	1
0	429	139.235666704834	1
0	434	139.444876383293	2
0	438	140.679686667983	0
0	440	140.998238159347	0
0	451	144.454517461361	1
0	464	149.193424738246	0
0	469	149.802696368426	1
0	485	155.368380185218	1
0	499	159.031681876748	0
0	507	160.591460233556	1
0	522	166.170537541971	0
0	526	166.564292845318	1
0	528	166.662561683688	1
0	548	171.94920046488	2
0	554	173.586188012502	0
0	562	176.501276483295	0
0	567	177.681758833352	1
0	572	179.523930281289	1
0	577	180.845350691937	0
0	585	183.379696553807	1
0	592	186.51626758196	0
0	596	187.584123574432	0
0	600	188.814856813756	1
0	606	192.302437859355	0
0	612	194.416320134188	1
0	625	199.818048109767	1
0	641	205.139535141179	0
0	645	205.44830014743	1
0	662	210.891122626374	1
0	664	211.745461832149	0
0	667	212.02805656055	0
0	669	212.380235540797	0
0	677	216.155249018921	1
0	688	221.562542922562	1
0	697	224.697440745193	0
0	700	225.751093697968	0
0	705	226.716371102957	1
0	708	228.436933754594	0
0	715	232.419101478299	1
0	720	234.599261876428	0
0	727	238.269304129295	1
0	735	243.28072980151	0
0	739	243.370088250842	1
0	751	248.988898425829	1
0	759	252.478791821632	0
0	765	254.279367313022	1
0	774	257.540465461788	0
0	782	260.079999092734	1
0	783	260.224575336905	0
0	792	264.694206977846	0
0	796	265.194293823559	1
0	801	268.766729784548	0
0	807	270.381610600278	1
0	817	275.474141781917	0
0	821	276.128405478783	1
0	832	282.0585764891	1
0	847	287.561686626868	1
0	858	290.281873396015	0
0	866	292.616748086875	1
0	881	297.189598934841	0
0	890	298.520962515846	1
0	897	300.654503519644	0
0	907	303.813549462822	0
0	911	304.203875690233	1
0	913	305.124426396448	0
0	923	309.840307741426	1
0	938	315.213705605595	1
0	951	319.254676465062	0
0	960	320.687322194921	1
0	968	323.58549686335	0
0	978	326.266832777299	1
0	999	332.180520009482	2
0	1018	337.42697215965	0
0	1022	337.454627069644	1
0	1033	341.177714860298	1
0	1042	342.919673326425	2
0	1054	345.681398086833	0
0	1062	348.230306240963	1
0	1069	350.452358939102	0
0	1076	353.585193707375	0
0	1080	353.6254917013	1
0	1097	359.337657956407	1
0	1099	360.423749218346	0
0	1113	365.262011333369	1
0	1119	367.329744774152	0
0	1122	367.738775500094	1
0	1133	370.68924082513	1
0	1152	376.134116884787	2
0	1174	382.010911769001	2
0	1192	387.1466407564	2
0	1198	388.424617341837	0
0	1205	391.534023180838	1
0	1213	392.981772676343	1
0	1227	397.279307480901	1
0	1235	398.622773931362	2
0	1237	399.242164902038	1
0	1245	401.325960972231	0
0	1255	403.93784583523	1
0	1269	408.119921337464	0
0	1271	408.467631006614	1
0	1279	409.877485093661	1
0	1293	414.811019473011	0
0	1300	415.688548188191	1
0	1308	418.123342850595	0
0	1318	420.81481316383	1
0	1341	426.690173588693	2
0	1345	427.781404559385	0
0	1347	427.843125691289	0
0	1349	428.128150241333	0
0	1356	432.016749547329	1
0	1367	437.243017799454	1
0	1375	441.103166566814	1
0	1381	442.32433404401	1
0	1400	447.419778799639	2
0	1403	448.213034786401	0
0	1418	453.355991092046	1
0	1429	457.443567450739	0
0	1437	458.960647022586	1
0	1442	460.561483144412	1
0	1447	461.597643594491	0
0	1453	463.595925530069	0
0	1458	464.779356265209	1
0	1473	470.208038793645	1
0	1475	470.720302591684	0
0	1479	471.996333023883	0
0	1488	475.801703561564	1
0	1492	478.015231839616	0
0	1495	478.833043318592	0
0	1502	481.678054810037	1
0	1512	486.885261680699	1
0	1519	489.931006086992	0
0	1526	491.985046202085	1
0	1537	496.662290175796	0
0	1543	497.452533840436	1
0	1553	501.627774231254	0
0	1559	502.956057932695	1
0	1564	505.309597378597	0
0	1572	508.19975515688	1
0	1583	512.534193582602	0
0	1589	513.750566357516	1
0	1592	514.979799135474	0
0	1603	519.001078673873	1
0	1619	524.600214861801	1
0	1639	529.797860167224	2
0	1653	533.122185085437	0
0	1655	533.896191357172	0
0	1660	535.095945018811	0
0	1664	535.462251368213	1
0	1665	535.706956866084	1
0	1677	540.953893089436	1
0	1690	546.708413108021	1
0	1710	552.209663591815	2
0	1728	557.308668612039	2
0	1730	557.544051036242	0
0	1734	558.393938820812	0
0	1736	558.430368652455	1
0	1743	561.55316264718	1
0	1749	563.239892358428	1
0	1764	568.296497006437	1
0	1768	569.919435568043	0
0	1782	573.499791725075	1
0	1797	578.291058925098	0
0	1803	579.222131957535	1
0	1804	579.852835968722	0
0	1820	584.413711729462	1
0	1832	587.805745007472	0
0	1840	590.124803943562	1
0	1853	594.117874103716	0
0	1861	595.679466058037	1
0	1867	597.077074199451	0
0	1881	601.669299988544	1
0	1898	606.622629912224	0
0	1902	606.847642261537	1
0	1910	609.519001932236	0
0	1914	609.959697267859	0
0	1923	612.595742071282	1
0	1937	618.33364129998	1
0	1943	620.226460305047	0
0	1945	620.72705379862	0
0	1954	624.12090888736	1
0	1970	629.721018934391	1
0	1989	635.061903601747	2
0	2000	638.290874528467	0
0	2002	639.263765523447	0
0	2009	640.440784419889	1
0	2010	640.781981240959	0
0	2021	645.779127474178	1
0	2034	651.206385425294	1
0	2047	655.698091544679	0
0	2051	656.354238097791	0
0	2055	656.512803877706	1
0	2062	659.399447673585	1
0	2071	661.607310900001	1
0	2076	663.11415533093	0
0	2081	664.218726645808	0
0	2089	667.114784919426	1
0	2098	670.453231204188	0
0	2104	672.951780499775	0
0	2108	673.089809007246	1
0	2120	679.061054621126	1
0	2122	679.460021479989	0
0	2124	680.525345096832	0
0	2131	684.30306238006	1
0	2141	690.21246655821	1
0	2146	691.651450043546	0
0	2157	695.45905849035	1
0	2171	700.665424495936	1
0	2178	702.501522877837	0
0	2195	706.382888201392	1
0	2201	707.805724643522	0
0	2216	711.388527870412	1
0	2221	713.232596255141	0
0	2234	717.073236579775	1
0	2251	722.123910224998	2
0	2266	727.378979636706	1
0	2270	727.519745566884	2
0	2292	733.181912563743	2
0	2294	733.506495573327	0
0	2305	737.426583435271	1
0	2311	738.269299350215	1
0	2313	738.694651674247	0
0	2318	740.423181192136	0
0	2321	741.187985763304	1
0	2323	741.633435274711	0
0	2328	743.994341605112	1
0	2335	748.467037502213	0
0	2340	749.03374330234	1
0	2347	753.592807777459	0
0	2352	754.536436449273	1
0	2365	760.170068662616	1
0	2371	762.75709266437	0
0	2379	766.162262018772	1
0	2394	771.548016082265	1
0	2413	777.244971601761	2
0	2414	777.459210904201	1
0	2432	782.700817648091	2
0	2450	787.856642908885	2
0	2453	788.412902226557	1
0	2469	792.916756313297	2
0	2471	793.423940064968	0
0	2477	795.37739081774	1
0	2485	798.340805761051	0
0	2489	798.670873939761	1
0	2496	801.534545336037	1
0	2508	803.982620237398	1
0	2513	805.209959829695	0
0	2524	809.222618052506	1
0	2541	814.929046500011	0
0	2545	815.05911021191	1
0	2547	815.96136655356	0
0	2562	820.568307042125	1
0	2580	825.963780795926	2
0	2584	826.967035025594	0
0	2599	831.545290251732	1
0	2607	833.850309625969	0
0	2618	836.941000341209	1
0	2629	839.578878820528	1
0	2631	839.975632869991	0
0	2641	842.908857385865	1
0	2650	845.660637290919	0
0	2660	848.32078921935	1
0	2661	848.485042025572	0
0	2669	850.666057307626	0
0	2674	853.545067411968	0
0	2678	853.561502682282	1
0	2684	857.60994437803	0
0	2688	858.697940862509	1
0	2701	864.261695782658	1
0	2715	869.66826327681	1
0	2716	869.992137249215	0
0	2731	874.889638497032	1
0	2739	877.266767910801	0
0	2749	880.51442481764	1
0	2771	886.354222316997	2
0	2774	886.898375240275	0
0	2789	891.926327981291	1
0	2793	893.434768561628	0
0	2802	895.794188574074	1
0	2808	897.032864988785	1
0	2810	897.602701404252	0
0	2824	902.115819876551	1
0	2843	907.271490570627	2
0	2847	908.543010150667	0
0	2850	909.430483339588	1
0	2861	912.737859553428	1
0	2877	917.906911769651	0
0	2884	918.672390661671	1
0	2886	919.980556966974	0
0	2901	923.943409936506	1
0	2912	928.45412199665	0
0	2918	929.185552306477	1
0	2925	930.777259979749	0
0	2931	933.102821214594	0
0	2938	934.65643351735	1
0	2943	936.987495010723	0
0	2946	937.933727926346	0
0	2952	940.500100888316	1
0	2961	945.116914490476	0
0	2965	945.887930314526	1
0	2976	951.084449890539	1
0	2991	956.770418674922	1
0	3010	961.901775920768	2
0	3019	964.741640071737	0
0	3028	967.325891286838	1
0	3036	969.947617666683	1
0	3048	972.786599808145	2
0	3067	978.07935597329	2
0	3087	983.329563366953	2
0	3090	984.194614565934	0
0	3097	986.285950821592	1
0	3103	988.46740933904	1
0	3107	989.309042640967	1
0	3115	992.069757048739	0
0	3120	993.128436953766	0
0	3126	995.230284555588	1
0	3142	1001.218164958298	1
0	3146	1002.578484515548	0
0	3156	1006.117006234015	0
0	3160	1006.331975413259	1
0	3161	1006.433027278404	1
0	3174	1011.224198884919	0
0	3179	1012.150606362853	1
0	3196	1018.127871152717	1
0	3210	1022.559290349488	0
0	3217	1023.925247203796	1
0	3237	1029.534622377022	2
0	3250	1033.590883853847	1
0	3257	1035.356998400187	0
0	3261	1035.399655756312	1
0	3269	1037.706693019605	0
0	3271	1037.987200939917	0
0	3280	1040.766471779444	1
0	3296	1046.185439344966	1
0	3300	1047.192582808555	0
0	3314	1052.003424149477	1
0	3321	1054.109197000396	0
0	3333	1057.828251359756	1
0	3334	1058.901956779306	0
0	3343	1061.937045039492	0
0	3350	1063.460156997205	1
0	3362	1068.947075229143	0
0	3367	1069.305587004875	1
0	3368	1069.418663343886	0
0	3373	1071.122671314054	0
0	3380	1074.365044515585	1
0	3386	1078.014174146118	0
0	3391	1079.87095207931	1
0	3396	1082.864013405523	0
0	3402	1085.419594943528	1
0	3407	1088.520955180985	0
0	3413	1091.121718604821	1
0	3424	1097.064745526999	1
0	3437	1102.524745425448	1
0	3451	1106.553588847868	0
0	3459	1107.927996834047	1
0	3482	1113.754477384971	2
0	3483	1114.549228171942	1
0	3493	1116.863415919133	0
0	3497	1117.591470862629	0
0	3502	1118.803335301583	1
0	3517	1124.238721953244	1
0	3523	1125.812711456679	0
0	3533	1129.474239955195	1
0	3541	1131.655858866409	0
0	3552	1134.897082838234	1
0	3566	1138.899120526509	0
0	3572	1140.492318488429	1
0	3578	1142.460820814255	0
0	3592	1146.25508046919	1
0	3597	1148.00206609711	0
0	3609	1151.313226434872	1
0	3632	1157.310267663332	2
0	3641	1160.272147213927	0
0	3651	1163.232946993787	1
0	3657	1165.037164221288	0
0	3660	1165.287569977929	0
0	3663	1166.439124525761	0
0	3668	1168.600987412039	1
0	3678	1173.979379108179	1
0	3688	1177.387776945838	0
0	3694	1179.124293962963	1
0	3695	1179.425783072254	1
0	3710	1184.441454263873	1
0	3724	1188.717093833607	0
0	3726	1189.036259043384	0
0	3732	1190.070358024681	1
0	3746	1195.221300813373	1
0	3754	1197.754469834156	0
0	3759	1200.123734808182	0
0	3764	1200.69201703044	1
0	3781	1206.674937370935	1
0	3784	1207.592637282336	0
0	3799	1211.847767590781	1
0	3810	1215.711871478826	0
0	3819	1217.633281821854	1
0	3838	1222.865119679136	2
0	3861	1228.719722826736	2
0	3863	1229.434794772884	1
0	3880	1233.85373655707	2
0	3886	1236.037834626508	0
0	3898	1239.399317950014	1
0	3906	1241.899261719782	1
0	3916	1244.052613059179	0
0	3921	1244.810690975985	1
0	3924	1245.744332502483	1
0	3936	1249.09916250373	0
0	3943	1250.343858294426	1
0	3959	1254.860743073282	0
0	3965	1256.11552127032	1
0	3985	1261.806242109047	2
0	3990	1263.897897936291	0
0	4004	1267.06411808683	1
0	4011	1269.078954536587	0
0	4014	1269.435641277004	0
0	4024	1272.904819964901	1
0	4039	1278.540600260025	1
0	4040	1278.69785099931	0
0	4042	1279.120102738499	1
0	4059	1284.321028275652	1
0	4080	1290.144332003318	2
0	4089	1292.987266190818	0
0	4099	1295.287467771912	1
0	4122	1301.171709204329	2
0	4143	1306.386023019444	2
0	4151	1308.84757976292	1
0	4163	1311.520541343842	2
0	4164	1311.558908616314	1
0	4174	1314.210107614641	1
0	4185	1316.709746756828	2
0	4191	1318.524764801846	0
0	4203	1322.190099515956	1
0	4205	1322.770408666463	0
0	4218	1327.334738150941	1
0	4240	1332.877540810037	2
0	4250	1336.226497403348	1
0	4252	1336.436362222533	1
0	4261	1337.903067819312	2
0	4269	1339.958664105038	1
0	4282	1343.384971677331	1
0	4286	1343.790762832159	2
0	4289	1344.941566331193	1
0	4297	1347.137594460396	0
0	4304	1348.830474908933	1
0	4319	1352.526617160302	0
0	4326	1353.895684148189	1
0	4333	1355.613020094115	0
0	4342	1358.43214194477	0
0	4347	1359.277912649097	1
0	4349	1360.123432374672	0
0	4361	1364.799413891047	1
0	4364	1366.192911470429	0
0	4367	1367.336710250944	0
0	4373	1370.764483677925	1
0	4380	1375.356936259084	0
0	4385	1376.443921088244	1
0	4397	1381.748130384836	1
0	4411	1387.114431208933	0
0	4415	1387.458537695933	1
0	4432	1393.377088848738	1
0	4444	1396.758290677449	0
0	4453	1399.143910469025	1
0	4465	1403.294818739644	0
0	4474	1405.11822138727	1
0	4478	1406.651431060399	0
0	4484	1408.327150933215	0
0	4493	1411.043655983175	1
0	4507	1416.061201427833	1
0	4511	1416.788085422832	0
0	4521	1420.489678205227	0
0	4525	1421.115886809773	1
0	4543	1427.02687043534	1
0	4552	1429.966388907868	0
0	4562	1432.325662377992	1
0	4563	1432.621309150363	0
0	4580	1437.855434259869	1
0	4598	1443.098705125045	2
0	4611	1447.047258249022	0
0	4617	1448.383023299048	1
0	4631	1452.564143870496	0
0	4635	1453.241840316335	0
0	4639	1453.571834394479	1
0	4649	1457.799298945236	0
0	4655	1459.26324967272	1
0	4662	1462.336013568335	0
0	4669	1465.236361232124	1
0	4670	1465.315195026924	1
0	4685	1471.075810745129	1
0	4708	1477.052559979496	2
0	4732	1482.506159424552	2
0	4750	1487.583653697049	0
0	4756	1488.432396484076	1
0	4757	1488.971329513125	1
0	4774	1493.271190284288	1
0	4779	1494.000664909373	2
0	4799	1499.653279465393	2
0	4803	1500.515167631096	0
0	4813	1504.651118284326	0
0	4817	1505.490164319522	1
0	4829	1509.658059410637	1
0	4831	1510.155017417161	1
0	4837	1511.368372687374	1
0	4854	1516.690741278234	2
0	4860	1518.004105415664	0
0	4875	1522.447290186075	1
0	4895	1528.352578571069	2
0	4900	1529.192737680165	1
0	4917	1534.075551834891	2
0	4928	1538.038651159502	1
0	4932	1539.207035968083	0
0	4936	1539.610307475089	1
0	4957	1545.311797120145	2
0	4973	1550.425805011535	0
0	4975	1550.519118772472	0
0	4979	1551.05464704917	1
0	4986	1554.185214768284	1
0	4997	1556.847722633977	1
0	4999	1557.502383924906	1
0	5012	1561.313138884263	0
0	5019	1562.521915535212	1
0	5039	1568.200409050568	2
0	5041	1568.551321730252	0
0	5048	1570.619251495112	1
0	5052	1571.935932344059	0
0	5054	1571.945089952906	0
0	5059	1573.5171126253	1
0	5069	1578.879304843492	1
0	5070	1579.261324891822	0
0	5081	1583.999051274968	1
0	5098	1589.920169387947	1
0	5099	1590.188815225501	0
0	5104	1590.867764847119	0
0	5115	1595.431749726183	1
0	5121	1597.732450619576	0
0	5123	1598.308830508615	0
0	5126	1599.858869222929	0
0	5130	1600.558701539182	1
0	5137	1605.847209229835	1
0	5147	1611.754599556562	1
0	5155	1613.851187718452	0
0	5165	1617.145267753631	1
0	5181	1622.832244473977	1
0	5197	1627.940669514474	0
0	5201	1628.557859352329	0
0	5205	1628.823672631292	1
0	5212	1631.900634490887	0
0	5220	1634.196138053669	1
0	5238	1639.663843581222	1
0	5254	1644.429676868372	0
0	5260	1644.859905440129	1
0	5279	1650.856047280134	2
0	5281	1650.892327850803	0
0	5299	1656.543382478413	1
0	5302	1657.452464717558	0
0	5307	1659.266415467256	1
0	5316	1661.598352426664	1
0	5322	1663.352779484471	0
0	5333	1667.446964459495	0
0	5337	1667.510529535591	1
0	5355	1673.23908732785	1
0	5373	1679.104498296977	2
0	5382	1681.533160654714	0
0	5393	1684.950767256786	1
0	5397	1685.718721592567	0
0	5399	1685.736292230899	1
0	5403	1687.280627598406	0
0	5413	1690.439850938507	1
0	5426	1695.866737860954	1
0	5443	1700.6465706639	0
0	5450	1701.801230895799	1
0	5472	1707.707618823042	2
0	5491	1712.770719750319	2
0	5497	1714.26978388464	1
0	5501	1715.433537117208	0
0	5507	1717.857037640412	1
0	5512	1718.546235874761	1
0	5530	1723.649212984601	2
0	5538	1725.916843615941	1
0	5551	1728.786957859527	2
0	5555	1729.507539037269	1
0	5560	1731.494962289467	0
0	5569	1734.374863566132	1
0	5571	1734.941855788346	0
0	5573	1735.589709603929	0
0	5580	1739.2968497572	0
0	5585	1740.122145060682	1
0	5597	1745.551870536524	1
0	5604	1749.062154937651	0
0	5612	1750.995890788035	1
0	5617	1753.190404842723	0
0	5620	1754.33393716882	0
0	5626	1756.317754366202	1
0	5631	1759.991337408428	0
0	5637	1761.730000041425	1
0	5641	1764.153054406749	0
0	5647	1766.935426517389	1
0	5655	1772.485789620548	0
0	5659	1772.511993540683	1
0	5672	1778.339401684002	1
0	5676	1779.494551881565	0
0	5683	1782.472854378751	0
0	5688	1783.635165784274	1
0	5700	1789.225953576852	1
0	5710	1793.067197752766	0
0	5717	1794.589433417654	1
0	5730	1800.161401047137	1
0	5749	1804.868824589181	0
0	5755	1805.259298237039	1
0	5763	1807.701374595753	0
0	5767	1808.680373909067	0
0	5770	1809.970005706184	0
0	5775	1810.435497581491	1
0	5784	1815.44749641395	1
0	5799	1820.67083366541	1
0	5809	1824.382699256062	0
0	5811	1824.693973777466	0
0	5817	1826.162990477866	1
0	5831	1831.473868645261	1
0	5853	1837.295103720156	2
0	5857	1838.563909970341	0
0	5862	1840.59592847689	0
0	5871	1842.60791822616	1
0	5887	1848.210649721324	1
0	5892	1850.029621695513	0
0	5895	1850.470010601913	1
0	5905	1853.713388226693	1
0	5908	1854.864497395117	0
0	5923	1859.378462298773	1
0	5931	1861.374999564605	0
0	5946	1865.171955773839	1
0	5959	1870.358384613877	0
0	5965	1870.470067496876	1
0	5967	1871.398795181186	0
0	5982	1876.052695179357	1
0	5984	1876.483345450134	0
0	5989	1879.209774109767	0
0	5998	1881.283954180543	1
0	6001	1883.003614920543	0
0	6013	1887.1994052059	1
0	6019	1890.064388060824	0
0	6028	1892.847052262629	1
0	6039	1897.958300239639	0
0	6045	1898.534443796844	1
0	6062	1904.41514298017	1
0	6063	1904.90611710341	0
0	6079	1910.40136116417	1
0	6096	1915.946926073985	0
0	6100	1916.370894532882	1
0	6120	1921.721785713917	2
0	6136	1926.405723474106	0
0	6141	1926.732922030844	1
0	6149	1929.636620397329	0
0	6151	1929.87953089387	0
0	6159	1932.348778478567	1
0	6169	1937.079393533872	1
0	6175	1937.794177245347	1
0	6181	1940.512772669084	0
0	6190	1943.708232464267	1
0	6195	1944.815266240039	0
0	6208	1949.126244156852	1
0	6214	1951.154490997547	0
0	6226	1954.986525923011	1
0	6238	1959.198153776347	0
0	6246	1960.945863482074	1
0	6248	1961.052285000682	0
0	6265	1966.213716353287	1
0	6283	1972.015629836588	2
0	6295	1974.47192765877	0
0	6305	1977.61618867912	1
0	6309	1978.788878672289	0
0	6318	1982.121398921353	0
0	6324	1983.560243307144	1
0	6329	1986.465730491673	0
0	6334	1988.462115479512	0
0	6338	1989.001883971967	1
0	6345	1993.060337607048	1
0	6351	1994.330991671417	1
0	6367	1999.95596512104	1
0	6381	2004.313155901149	0
0	6388	2005.331964222245	1
0	6402	2009.964418225919	0
0	6409	2010.882683568863	1
0	6415	2012.775671724227	0
0	6427	2016.710378008658	1
0	6429	2017.130595466813	0
0	6446	2022.298962311117	1
0	6447	2022.825161986981	0
0	6463	2027.683994337214	1
0	6479	2032.492148518326	0
0	6485	2033.365205707025	1
0	6490	2034.416217859947	0
0	6505	2038.58304812037	1
0	6524	2043.69147815229	2
0	6529	2044.886579009584	0
0	6540	2049.038900266746	1
0	6545	2049.30494303838	1
0	6550	2051.083648112017	0
0	6556	2052.245404578277	0
0	6563	2054.655066534873	1
0	6571	2057.623511164678	0
0	6580	2060.495811361583	1
0	6593	2065.690183515424	1
0	6601	2067.964532972193	0
0	6613	2071.544216955077	1
0	6625	2075.14700664335	0
0	6627	2075.636673117519	0
0	6634	2077.19612403982	1
0	6635	2077.570658688661	0
0	6640	2080.482132681991	0
0	6645	2082.320905686353	1
0	6656	2088.007850467923	1
0	6660	2089.904481724134	0
0	6671	2093.778914814346	1
0	6686	2098.936662764285	1
0	6700	2103.239600298225	0
0	6702	2103.904666048938	0
0	6708	2104.936010684116	1
0	6722	2110.026579008667	1
0	6724	2110.671096203497	0
0	6737	2115.205237612125	1
0	6739	2115.517452906931	0
0	6748	2118.768232302273	0
0	6754	2120.400400675364	1
0	6768	2125.454490370812	1
0	6773	2126.628928686605	0
0	6789	2131.37173263705	1
0	6790	2131.816232215492	0
0	6797	2133.315567452573	0
0	6807	2136.63563619251	1
0	6816	2140.726749491407	0
0	6822	2142.245134320572	1
0	6823	2143.014809151758	0
0	6828	2145.057189401235	0
0	6835	2147.684785870366	1
0	6844	2152.914118958634	1
0	6862	2158.306520084847	1
0	6868	2160.317242215851	0
0	6880	2163.773007621287	1
0	6881	2164.355885500667	0
0	6895	2169.176024903076	0
0	6899	2169.311185870316	1
0	6914	2174.927245938216	1
0	6934	2179.95620199246	2
0	6935	2180.194718627489	1
0	6956	2185.407590182728	2
0	6959	2186.543620862529	0
0	6968	2189.035300943067	0
0	6976	2190.921082983722	1
0	6990	2196.118531750047	1
0	6999	2198.808403837259	0
0	7002	2199.671839869928	1
0	7011	2202.048107509266	1
0	7031	2207.41339743789	2
0	7035	2208.144090702406	0
0	7051	2212.780020407398	1
0	7071	2218.562637156572	0
0	7075	2218.568682026581	1
0	7085	2222.265384045077	1
0	7096	2224.35345215257	2
0	7104	2226.91418580862	0
0	7107	2227.653490110647	0
0	7113	2229.435416073769	1
0	7130	2235.319562118265	1
0	7131	2235.559530116381	1
0	7136	2236.876392289179	0
0	7147	2240.377814374163	1
0	7149	2241.056619681182	0
0	7153	2241.52270239533	0
0	7159	2244.513298636765	0
0	7164	2245.82256291527	1
0	7175	2251.033692280526	1
0	7191	2256.478453351414	1
0	7192	2257.006623803986	0
0	7195	2257.524534196823	0
0	7206	2262.33349806815	1
0	7223	2268.063870914044	1
0	7230	2270.556191068138	0
0	7243	2273.909306457728	1
0	7245	2274.533341725353	0
0	7251	2276.580049517792	0
0	7260	2279.497721189862	1
0	7265	2281.539772334622	0
0	7275	2285.343109443547	1
0	7284	2288.759396080389	0
0	7291	2290.624737685542	1
0	7307	2296.226218738123	1
0	7308	2296.335727405029	0
0	7324	2302.082267531655	1
0	7342	2307.10674719512	2
0	7349	2309.182694264567	0
0	7362	2312.937245042292	1
0	7363	2313.307158764332	0
0	7377	2318.079789712789	0
0	7382	2318.758449284589	1
0	7392	2322.400017421803	1
0	7401	2324.235640500901	1
0	7403	2325.254317891664	0
0	7422	2330.204874855462	1
0	7423	2330.461647336368	0
0	7426	2331.377263629457	0
0	7438	2335.699944901276	1
0	7456	2341.657359874338	1
0	7469	2345.678979069454	0
0	7477	2346.972116131565	1
0	7487	2349.904354545751	0
0	7495	2352.31329912203	1
0	7513	2357.436804352557	2
0	7521	2359.207644503907	0
0	7524	2360.274125797087	1
0	7535	2362.451151973331	1
0	7544	2365.248149441085	0
0	7552	2367.781614679839	1
0	7556	2368.52591376565	0
0	7570	2373.339491683986	1
0	7579	2375.692573762262	0
0	7589	2378.534572830653	1
0	7609	2383.809456376588	2
0	7615	2385.359420092539	0
0	7618	2386.053707540729	1
0	7630	2389.253376105331	1
0	7641	2392.791545057666	0
0	7651	2395.120597762983	1
0	7654	2396.101680467715	0
0	7668	2400.198451850559	1
0	7690	2405.631124629868	2
0	7695	2407.248531577872	0
0	7708	2411.340249433411	1
0	7721	2415.757579561315	1
0	7730	2417.295386863868	2
0	7732	2417.655856864987	0
0	7740	2420.512791758283	0
0	7747	2422.624753646548	1
0	7753	2424.550015136247	0
0	7763	2428.378659877456	1
0	7774	2431.713784252638	0
0	7776	2432.208074740711	0
0	7782	2434.111412414578	1
0	7789	2438.87243823206	1
0	7794	2439.115825299169	1
0	7810	2444.960885742675	1
0	7830	2450.238997984673	2
0	7853	2455.919469020791	2
0	7854	2455.97588606411	1
0	7860	2457.272475230153	0
0	7871	2461.559867627448	1
0	7875	2461.88331793807	1
0	7892	2466.260374374799	0
0	7898	2467.062101854473	1
0	7902	2469.036670894824	0
0	7914	2472.46528252563	1
0	7928	2477.124818049018	0
0	7930	2477.372273504381	0
0	7934	2477.746628087242	1
0	7940	2480.848902643654	0
0	7949	2483.382281920868	1
0	7953	2485.038886106918	0
0	7965	2489.185480199051	1
0	7974	2493.097358194989	0
0	7982	2494.860035648798	1
0	7995	2500.07459761295	0
0	7998	2500.675199410289	0
0	8002	2500.829592375779	1
0	8004	2502.42239466053	0
0	8011	2506.408775815037	1
0	8023	2511.928580073868	1
0	8040	2517.57485516299	1
0	8057	2522.691995202559	2
0	8059	2523.491480652586	1
0	8061	2523.515582635297	0
0	8075	2528.194443013282	1
0	8082	2530.502743171291	0
0	8085	2531.297132511616	0
0	8089	2532.973113948823	0
0	8094	2533.3703273721	1
0	8103	2538.485258775759	1
0	8106	2539.941283248474	0
0	8119	2544.429467312056	1
0	8135	2549.574330846309	1
0	8155	2554.728341398989	2
0	8177	2560.456788430452	2
0	8178	2560.594546809088	1
0	8181	2561.089021399378	0
0	8187	2563.746081178075	1
0	8195	2565.573457888556	1
0	8213	2571.049893158484	2
0	8216	2571.742394461875	0
0	8223	2573.998685782192	0
0	8232	2576.874290509378	1
0	8237	2579.249556473917	1
0	8239	2579.30550248641	0
0	8245	2581.521082727466	0
0	8250	2582.267861567666	1
0	8262	2588.179118614174	1
0	8276	2593.460262493692	1
0	8283	2596.293859376103	0
0	8287	2597.279136599737	0
0	8290	2598.051418262645	0
0	8295	2599.42625646968	1
0	8301	2603.480610695312	0
0	8306	2605.040656093504	1
0	8315	2610.238296948136	1
0	8331	2615.96616292302	1
0	8347	2620.939798068136	0
0	8352	2621.182491524839	1
0	8353	2621.696928289017	0
0	8367	2626.875199564495	1
0	8388	2632.332843689709	2
0	8408	2637.42026737425	2
0	8411	2638.547312707984	0
0	8426	2642.464818896023	1
0	8433	2644.732198380394	1
0	8442	2646.66736393317	0
0	8448	2647.833177897609	1
0	8449	2648.547888412134	1
0	8456	2649.7176670134	0
0	8471	2653.809542478523	1
0	8488	2659.034113476514	2
0	8512	2664.834747415963	2
0	8515	2665.384039500489	0
0	8518	2665.869653290831	1
0	8525	2668.819087925247	0
0	8527	2669.259435724112	1
0	8533	2670.40604247944	1
0	8545	2675.323212004378	0
0	8551	2676.281168884128	1
0	8566	2681.50540542672	1
0	8571	2683.066728406931	0
0	8579	2686.121079984583	0
0	8585	2687.166886579474	1
0	8588	2688.44063587917	0
0	8590	2688.524434429939	0
0	8592	2689.572547926447	0
0	8596	2692.705671453844	1
0	8603	2698.323356454955	1
0	8613	2703.827030549055	1
0	8627	2709.584156765366	1
0	8647	2714.824779750543	2
0	8655	2717.23118009697	1
0	8666	2719.966336072186	2
0	8682	2724.867958003999	0
0	8688	2725.766123000063	1
0	8693	2727.471304055301	0
0	8701	2730.185602652603	0
0	8707	2731.548830456562	1
0	8724	2736.734546885356	1
0	8729	2738.755583105253	1
0	8743	2742.157951681172	2
0	8764	2748.076013920472	1
0	8768	2748.086013743417	2
0	8770	2749.413563522156	0
0	8774	2749.913708624311	0
0	8783	2753.150112510888	1
0	8791	2756.298219066692	0
0	8798	2758.435133292103	1
0	8812	2763.542022660836	1
0	8831	2768.958827124671	2
0	8844	2772.480383208832	0
0	8847	2773.086444030858	1
0	8853	2774.441386975809	1
0	8865	2778.034211575049	0
0	8873	2780.360918859714	1
0	8879	2781.413467296159	0
0	8882	2782.39535747701	1
0	8893	2785.821349009634	1
0	8902	2789.004771230271	0
0	8910	2791.260821604631	1
0	8928	2796.748196939002	2
0	8946	2801.964304258113	0
0	8950	2802.343039583876	1
0	8967	2806.956262881165	0
0	8973	2807.801596973785	1
0	8974	2807.828261154235	0
0	8983	2811.750571399342	1
0	8990	2813.249873986929	1
0	9000	2816.872931315792	0
0	9003	2817.747509059259	0
0	9009	2818.41803412302	1
0	9017	2821.969187465959	0
0	9024	2823.743403129043	1
0	9040	2829.242931328012	1
0	9058	2834.477510989873	2
0	9059	2834.548170979014	0
0	9061	2834.605258474589	1
0	9077	2839.715549742334	1
0	9094	2844.760916422118	2
0	9095	2844.836537776857	0
0	9110	2850.123935030072	1
0	9114	2850.987392713078	0
0	9131	2855.721381606764	1
0	9136	2857.187469439577	0
0	9149	2861.245560656532	1
0	9159	2863.761694237006	0
0	9169	2866.627366394966	1
0	9175	2868.083279480223	1
0	9181	2869.743427905716	0
0	9187	2871.972667920516	0
0	9191	2872.211730558655	1
0	9196	2874.168925581148	0
0	9206	2877.765789908354	1
0	9220	2883.468940641495	1
0	9226	2885.456363791247	0
0	9239	2888.759295572058	1
0	9255	2893.644147830895	0
0	9257	2893.700883471751	0
0	9261	2893.863622258647	1
0	9278	2899.499826951182	1
0	9294	2904.203918812909	0
0	9300	2904.524819624374	1
0	9321	2910.414683768522	2
0	9333	2913.070644043848	1
0	9336	2914.428561532983	0
0	9339	2914.873055396831	0
0	9345	2916.162612057986	1
0	9352	2918.380321386383	0
0	9355	2919.195230863519	0
0	9361	2922.123832826033	1
0	9368	2926.035204141513	0
0	9373	2927.497903512787	1
0	9376	2930.054843966031	0
0	9383	2933.186614514558	1
0	9396	2938.939719104903	1
0	9413	2944.352059666064	1
0	9423	2947.633920086894	0
0	9432	2949.70395394391	1
0	9440	2951.798618543772	0
0	9443	2952.558966161445	0
0	9452	2955.028205812905	1
0	9453	2955.103587569199	0
0	9457	2957.135122830045	0
0	9463	2960.106974245278	1
0	9474	2965.194149733284	1
0	9491	2970.57411606167	1
0	9509	2975.716009826162	2
0	9528	2980.897263630289	2
0	9541	2984.912069121139	1
0	9543	2985.249068125495	1
0	9552	2986.62499201763	2
0	9571	2991.732990830434	2
0	9575	2992.750287461207	0
0	9578	2993.939658327024	1
0	9581	2994.793576328546	0
0	9590	2997.034456003453	1
0	9606	3002.2064629849	1
0	9620	3006.086000393026	1
0	9628	3007.579418494827	0
0	9633	3008.155066746981	1
0	9643	3011.052188220082	0
0	9654	3013.63413908565	1
0	9677	3019.474418146764	2
0	9683	3020.996567864548	0
0	9686	3021.780941950967	0
0	9691	3024.431214360748	1
0	9698	3025.426233818983	1
0	9701	3026.919088360266	0
0	9708	3030.11104810575	0
0	9713	3031.038837533207	1
0	9723	3036.640598016321	1
0	9726	3037.813929606808	0
0	9737	3042.425224089991	1