version 3
run General-3-20240430-20:30:43-5480
attr configname General
attr datetime 20240430-20:30:43
attr datetimef 20240430-203043
attr experiment General
attr inifile omnetpp.ini
attr iterationvars $0=true
attr iterationvarsd true
attr iterationvarsf true-
attr measurement $0=true
attr network Supermarket
attr processid 5480
attr repetition 3
attr replication #3
attr resultdir results
attr runnumber 3
attr seedset 3
config network Supermarket
config repeat 10
config num-rngs 10
config **.use_random_strategy true

vector 0 Supermarket queueSizeOverTime:vector ETV
attr recordingmode vector
attr source updateQueue
attr title queueSizeOverTime
vector 1 Supermarket customerWaitingTime:vector ETV
attr interpolationmode none
attr recordingmode vector
attr source customerFinished
attr title "cust waiting time"
0	7	5.458054946968	1
0	14	11.375032927375	1
0	21	16.019193224959	0
0	26	17.038080834318	1
0	38	22.681142681278	1
0	53	28.281213496346	2
0	56	29.298090248019	0
0	67	33.516271388391	2
0	79	38.539870219771	1
0	92	43.607061276093	1
0	96	43.716887078248	2
0	97	44.847623396199	1
0	112	49.235063422471	2
0	113	49.236521039974	1
0	120	51.683495351231	0
0	129	54.307647310197	1
0	131	54.717424322732	0
0	144	59.503418567823	1
0	157	64.738599068485	3
0	169	69.351250676553	2
0	175	70.603704640874	2
0	187	75.450269312716	1
0	189	76.035167384659	0
0	194	76.338657222688	1
0	199	78.954923910091	0
0	207	81.515499001834	1
0	219	87.3628271498	1
0	223	87.418012846959	1
0	243	93.349344026762	2
0	244	94.098847240907	0
0	260	98.72576426505	2
0	269	101.87750433653	0
0	272	102.473570393398	1
0	275	104.219836139935	1
0	279	104.219913385807	2
0	289	109.595907095585	1
0	295	112.711056405561	0
0	303	115.11128921178	3
0	308	118.055528869734	0
0	313	120.497441296697	1
0	317	123.08936908585	2
0	324	125.554143696556	3
0	331	128.387390555581	0
0	336	130.760694971539	1
0	347	135.979367477352	1
0	361	141.677317646098	4
0	376	147.019024387466	1
0	396	152.592112896264	5
0	403	154.081652129768	0
0	406	154.638700486858	4
0	409	155.821684333959	0
0	417	157.680195571155	5
0	429	162.84337646095	1
0	431	163.42624858976	0
0	442	168.628030087798	6
0	445	170.406724116998	0
0	452	173.967397149419	1
0	463	179.433248966932	7
0	473	184.92681060289	8
0	476	186.196913594613	7
0	485	190.594991049962	8
0	487	191.28753409267	0
0	495	195.642821948277	9
0	503	200.953832170461	10
0	506	203.960312297219	9
0	512	206.647187229479	10
0	519	212.109724018257	1
0	530	217.522869602078	1
0	533	218.36053378426	9
0	547	222.846903427736	10
0	562	227.620409524535	0
0	566	227.855899064335	1
0	581	233.452360727125	2
0	596	239.047705993638	0
0	600	239.069848045473	1
0	614	244.563311733537	1
0	623	247.481414479669	9
0	630	249.354616491473	8
0	635	249.66434993944	2
0	638	250.626262998558	1
0	657	255.603505670557	9
0	678	261.209559236651	2
0	682	262.056085941034	1
0	693	265.907241001958	8
0	697	266.337400561196	2
0	700	266.852616395684	1
0	703	267.819971660152	1
0	709	269.382090440953	0
0	720	272.276991199234	2
0	736	278.27009433368	1
0	739	278.864858387271	1
0	744	280.124326803604	7
0	756	283.447001974329	2
0	775	288.608720206886	3
0	777	289.075574537856	2
0	782	289.996129130246	6
0	794	293.825395541151	0
0	796	294.263165164852	0
0	801	294.476306421214	3
0	812	299.817169666055	1
0	820	302.810530961954	0
0	825	304.641318235315	5
0	829	305.141762397482	6
0	834	308.125964095118	2
0	840	310.192416404604	3
0	852	315.640050682236	7
0	864	321.171689729203	1
0	875	326.450774992347	0
0	879	326.801603445082	1
0	893	332.615872982654	2
0	900	335.03214552661	6
0	902	336.112263714312	2
0	911	338.528254482427	3
0	928	343.845375169765	4
0	942	348.909225841754	5
0	946	349.652405283412	6
0	950	350.598983318891	3
0	966	355.523325786458	7
0	982	360.674932078689	4
0	989	362.866619046548	6
0	999	366.257654769344	3
0	1000	366.804835792747	2
0	1016	371.636668009681	7
0	1029	376.03360534343	1
0	1032	376.832299764964	3
0	1037	377.335197763748	4
0	1053	383.272920907938	8
0	1063	387.199329518826	3
0	1070	388.952706637324	2
0	1074	391.054098963157	1
0	1081	393.760826874293	7
0	1085	394.802529600679	8
0	1102	400.337773606178	9
0	1109	403.889479669977	0
0	1117	405.957260051972	1
0	1131	411.681368832473	10
0	1144	416.68281530577	2
0	1150	417.584415145913	11
0	1156	419.708892267431	10
0	1158	420.335958142765	0
0	1165	422.730187694771	1
0	1179	428.321469220562	1
0	1181	429.398041061006	0
0	1195	433.942003300876	0
0	1199	434.310127762375	1
0	1200	435.106180714791	1
0	1216	440.211117306254	11
0	1225	444.172092102464	0
0	1230	445.916289119977	1
0	1231	445.985311534953	0
0	1238	449.312187039879	10
0	1246	451.476603488201	1
0	1251	453.646047858518	0
0	1259	457.346023044079	11
0	1271	462.552506688978	1
0	1286	467.649753370551	2
0	1295	471.171374490603	10
0	1300	472.315231627201	1
0	1307	473.550009559836	1
0	1326	479.37902863626	2
0	1332	481.306317951299	9
0	1347	485.24603320425	10
0	1367	490.521824281892	2
0	1377	493.165393255996	1
0	1381	494.211720604329	0
0	1388	495.529742398063	2
0	1406	501.226723882133	3
0	1409	502.135201057299	1
0	1411	502.878594359495	2
0	1417	504.774860430275	9
0	1425	506.337216474578	2
0	1431	508.495787649994	1
0	1442	511.581953727637	10
0	1454	516.568008734378	9
0	1460	517.532989831871	10
0	1475	523.38246799749	11
0	1478	524.213265818542	10
0	1482	525.548587335155	0
0	1492	528.782660104564	11
0	1497	530.962883160444	1
0	1499	531.157321067758	10
0	1503	533.082978224729	9
0	1509	534.680224487089	10
0	1520	539.783251440615	1
0	1529	542.673980719753	0
0	1535	545.072458556383	0
0	1539	545.712779422287	1
0	1551	551.4259805656	1
0	1552	551.714685046227	9
0	1566	556.692992463238	10
0	1577	560.931401051344	0
0	1583	562.569280611813	1
0	1598	568.358494154407	1
0	1612	572.455534599021	9
0	1619	573.777014670657	2
0	1621	574.616876019512	0
0	1636	579.314825484991	3
0	1649	584.826955610299	0
0	1654	585.278418313708	10
0	1665	590.953130734848	1
0	1668	592.675996750008	9
0	1683	596.743142232062	4
0	1699	601.977630031757	2
0	1702	602.310062437315	3
0	1710	605.507139831078	1
0	1717	607.526242602147	10
0	1730	612.743772888204	9
0	1735	613.371624292336	2
0	1749	619.140158824153	1
0	1770	624.430742925029	10
0	1789	630.237853469556	3
0	1794	631.669387941708	2
0	1798	632.61250674596	2
0	1802	633.059298509261	0
0	1805	634.122286150343	1
0	1807	634.52252319839	9
0	1814	635.547441685568	10
0	1826	640.607814564831	2
0	1833	644.206527512981	1
0	1843	646.377993807192	1
0	1848	647.887755288152	1
0	1864	651.401485056612	2
0	1878	655.170204013232	0
0	1882	656.644209644172	9
0	1887	656.747299061152	1
0	1907	662.122788360338	10
0	1915	664.537872508164	9
0	1928	667.414428821295	10
0	1945	672.450464147253	1
0	1949	672.462135029952	2
0	1951	673.2716925065	0
0	1967	678.20818225224	3
0	1983	683.900684260758	4
0	1994	688.134933681105	3
0	2000	688.909302284237	2
0	2002	689.634265309426	1
0	2017	694.046354666114	1
0	2019	694.656366440228	9
0	2037	699.4847562015	2
0	2050	702.986540174804	2
0	2062	705.449833678076	3
0	2082	711.165755960153	3
0	2102	716.347350097954	2
0	2106	717.583683957687	1
0	2108	718.116760334695	2
0	2124	721.47902663261	3
0	2132	724.208615957635	8
0	2147	727.390893956873	2
0	2152	728.967823188045	2
0	2168	733.260832929978	3
0	2190	738.710700853024	9
0	2194	739.444068757696	2
0	2196	739.862569238283	1
0	2213	744.260070402403	2
0	2214	744.437976546344	2
0	2227	747.84321206423	8
0	2237	749.920396698168	3
0	2256	755.598094967534	1
0	2260	755.60534388036	2
0	2270	758.616008571811	1
0	2275	759.933599606153	0
0	2282	761.456635421603	9
0	2289	763.51702349993	2
0	2301	767.418011719822	10
0	2318	773.231266496698	1
0	2335	778.501741072504	9
0	2341	778.93328743963	2
0	2342	779.162047204091	1
0	2348	780.653018631731	1
0	2351	781.411071168014	1
0	2353	781.897140674982	8
0	2359	783.484444260006	0
0	2365	784.917735430407	1
0	2386	790.374080314063	9
0	2406	795.95679167937	2
0	2409	796.955394866865	0
0	2421	800.963044026862	1
0	2422	801.17990587593	0
0	2428	803.295327364927	1
0	2438	805.980316752331	1
0	2452	810.405642701075	0
0	2458	811.815852817842	2
0	2462	813.31510812823	8
0	2473	817.338286981913	2
0	2474	817.465822952445	1
0	2478	818.605488567724	0
0	2490	822.799990921509	3
0	2502	828.257076992648	4
0	2511	833.326125085464	3
0	2515	833.866760113737	9
0	2517	834.720916432201	8
0	2529	839.060082790437	9
0	2536	843.93636816739	8
0	2541	844.91624652687	1
0	2552	849.475129027265	0
0	2558	850.286421027263	1
0	2566	853.390155811551	7
0	2574	855.672475076975	2
0	2576	856.081031540286	2
0	2593	861.600872843522	3
0	2610	866.652818361759	1
0	2619	869.306341533771	6
0	2624	870.349851372059	5
0	2627	871.205693618738	2
0	2635	872.261771324785	6
0	2645	875.230110529457	1
0	2657	877.303628579244	7
0	2661	878.805706456991	6
0	2677	882.423871110888	7
0	2683	884.34771985991	0
0	2691	887.643431167928	1
0	2696	888.223980255887	1
0	2706	890.471461092701	0
0	2718	893.960627520453	2
0	2722	895.209178160058	0
0	2725	896.377671477023	6
0	2733	899.226225858318	7
0	2737	901.234665849706	1
0	2747	905.058991445691	8
0	2759	910.601503507464	9
0	2760	911.249453725869	0
0	2768	915.93802465568	1
0	2776	920.643812917976	8
0	2780	921.835835478731	1
0	2797	927.833181132792	2
0	2815	933.514761183408	9
0	2825	937.508396039123	8
0	2831	939.093342033678	3
0	2848	944.547782224833	9
0	2849	944.587694751096	2
0	2865	950.409524314103	2
0	2868	950.8795801755	1
0	2883	956.22906772373	1
0	2884	956.350927395858	0
0	2894	960.786287315538	1
0	2899	962.03725124813	8
0	2903	962.125142581991	2
0	2908	963.585824195177	1
0	2923	967.817769746061	2
0	2937	973.281066140158	3
0	2938	973.375923626355	2
0	2957	979.138727280076	3
0	2958	979.63114663353	0
0	2972	984.449888507135	1
0	2988	990.167290883835	1
0	2993	991.691506880906	7
0	3006	994.759276299852	2
0	3013	995.644870328249	8
0	3020	997.853884891025	0
0	3030	1000.664125447392	3
0	3041	1004.429195639676	2
0	3045	1005.712541841192	7
0	3050	1005.999345516318	1
0	3058	1008.612274225681	0
0	3069	1011.405173888195	2
0	3086	1016.674006480023	3
0	3087	1017.321470545954	1
0	3099	1021.799627957863	1
0	3104	1023.127334865857	2
0	3107	1023.878589677041	1
0	3117	1026.231182285226	6
0	3123	1027.412032573016	2
0	3142	1032.672442957291	7
0	3145	1033.110878101548	0
0	3158	1037.47860869602	1
0	3162	1038.269649255087	8
0	3177	1043.940595732068	2
0	3183	1045.562090953462	1
0	3188	1047.844481946434	0
0	3190	1047.947624602694	7
0	3196	1049.59894045186	2
0	3206	1054.652259184278	1
0	3215	1058.378506322854	0
0	3220	1059.968991829426	1
0	3224	1060.544129397718	8
0	3232	1064.811236516329	7
0	3238	1066.021919148041	1
0	3253	1071.990709896896	8
0	3262	1076.187448198086	0
0	3268	1077.36897246423	1
0	3282	1082.513354821595	9
0	3284	1082.757217424221	0
0	3295	1087.61613752623	1
0	3306	1092.693413297762	0
0	3311	1092.997168750268	1
0	3312	1094.062849771219	8
0	3326	1098.163389716529	2
0	3330	1099.351434611713	0
0	3332	1099.375290271592	1
0	3339	1102.88518944719	7
0	3343	1103.769922834354	2
0	3354	1108.961379243525	1
0	3371	1114.607480719218	1
0	3377	1116.822462123224	6
0	3394	1120.510449624153	2
0	3397	1121.176824254567	1
0	3407	1124.368788554679	1
0	3413	1125.469987641541	5
0	3418	1125.787664830683	2
0	3428	1128.67439073266	0
0	3436	1130.938737769377	1
0	3453	1135.980721853672	2
0	3466	1140.280544141537	0
0	3468	1140.297038075393	1
0	3473	1141.130685715469	1
0	3494	1147.083190735195	3
0	3497	1147.723312703538	0
0	3499	1148.30373078106	4
0	3506	1150.684425603352	3
0	3512	1152.296872321747	1
0	3519	1154.075873228601	2
0	3535	1158.249350146156	2
0	3550	1163.386630825103	2
0	3556	1163.75833979179	2
0	3558	1163.97133228717	1
0	3572	1168.171875989993	1
0	3578	1169.153184371999	2
0	3586	1171.100303047567	1
0	3599	1174.254021435964	0
0	3606	1175.033931785727	3
0	3607	1175.484293679238	2
0	3612	1176.916002275071	1
0	3624	1180.75159072643	2
0	3642	1186.176664415745	3
0	3652	1190.289402086055	1
0	3656	1191.467441162909	0
0	3661	1191.749002514871	4
0	3662	1192.317168670122	0
0	3670	1197.297125387935	5
0	3671	1197.854512784977	4
0	3678	1202.870035165686	1
0	3689	1208.841040076686	1
0	3706	1214.255026309749	1
0	3727	1219.919479948932	2
0	3733	1221.890888961963	1
0	3735	1221.912635865501	3
0	3741	1223.450210835202	0
0	3748	1225.413776646133	1
0	3769	1230.758377488933	2
0	3792	1236.670391981022	3
0	3793	1236.940832442371	0
0	3807	1241.89611890353	2
0	3821	1247.042756263164	4
0	3823	1247.473822483325	3
0	3834	1251.342592637055	2
0	3836	1251.57484266476	2
0	3842	1252.984306706113	3
0	3852	1257.39561072958	2
0	3858	1258.730516999259	3
0	3873	1263.847683660684	4
0	3882	1267.820857804849	1
0	3889	1268.878916539483	3
0	3891	1269.194491818546	0
0	3894	1270.297330835833	2
0	3905	1274.625161163274	5
0	3914	1279.485508851588	4
0	3918	1279.768871855454	1
0	3937	1285.484838354632	2
0	3939	1286.325471651738	1
0	3954	1290.884703554211	1
0	3974	1296.009325301738	3
0	3979	1297.902727621955	2
0	3997	1301.932201015528	5
0	4005	1303.44601098797	1
0	4009	1304.720825616151	4
0	4017	1307.330715463029	0
0	4023	1307.644269599111	2
0	4042	1313.275438053996	3
0	4047	1314.47571389924	2
0	4052	1316.08225634426	0
0	4054	1316.99933940917	1
0	4061	1319.257761559446	1
0	4068	1322.749651985706	0
0	4074	1324.315466827477	1
0	4089	1330.05246647773	2
0	4103	1335.112675318724	1
0	4115	1339.364461549439	3
0	4118	1340.227131738556	0
0	4123	1340.463241058864	4
0	4139	1345.960266423175	1
0	4146	1347.963574301913	0
0	4154	1350.719656084894	1
0	4156	1351.315094780174	3
0	4161	1351.410060293503	2
0	4166	1353.725962835709	0
0	4175	1357.100764172381	3
0	4186	1363.092616224192	4
0	4195	1368.106912838757	4
0	4206	1372.612386561694	3
0	4210	1373.172431653362	5
0	4212	1373.384114549958	4
0	4223	1378.28631178429	4
0	4237	1384.258716185108	1
0	4255	1390.216858604221	1
0	4265	1393.628441897102	0
0	4272	1395.307278364428	1
0	4282	1398.116243329129	3
0	4292	1400.578622152327	4
0	4298	1401.947078663502	3
0	4313	1406.084100239674	4
0	4333	1411.775360905795	2
0	4337	1412.733537164513	1
0	4343	1414.680365864998	0
0	4354	1417.190892612326	5
0	4368	1422.196196013127	2
0	4369	1422.934372003303	4
0	4372	1423.962723425472	3
0	4380	1427.066562641178	2
0	4386	1427.881522401233	3
0	4401	1433.198255409484	5
0	4405	1435.535419911025	2
0	4411	1437.290667948545	1
0	4419	1439.113930329445	6
0	4434	1444.274940165688	2
0	4449	1449.376278601817	1
0	4458	1452.625345812292	1
0	4461	1453.41185645619	5
0	4470	1454.90171746141	2
0	4472	1455.112801638661	0
0	4479	1457.026717118336	1
0	4489	1460.625724546841	3
0	4504	1466.051424406233	1
0	4522	1471.569460424592	2
0	4525	1472.447672778154	4
0	4530	1473.498151111761	3
0	4532	1473.880471523382	2
0	4545	1477.038205779621	3
0	4552	1478.898539002748	2
0	4555	1479.77091618266	2
0	4563	1481.647724442997	0
0	4565	1482.136300578011	1
0	4571	1482.658132463226	2
0	4578	1485.677686731093	1
0	4586	1488.095487920333	1
0	4604	1493.9475555378	2
0	4612	1495.997059135581	0
0	4626	1499.784992022671	3
0	4629	1500.602696649263	2
0	4637	1504.310000927301	1
0	4642	1504.96818752447	3
0	4647	1506.57328107231	2
0	4655	1508.857962483305	1
0	4660	1510.166547928236	1
0	4665	1510.631963125894	2
0	4670	1512.677068634305	0
0	4680	1515.930980172007	3
0	4691	1521.090375145663	1
0	4693	1521.749508820005	0
0	4696	1523.336255100902	2
0	4703	1526.224379215854	1
0	4718	1531.547251255716	3
0	4721	1532.80806643318	0
0	4729	1536.563163224955	0
0	4733	1536.965960564091	1
0	4741	1541.522742066994	2
0	4746	1542.04777233838	1
0	4761	1547.096964607014	1
0	4782	1552.539621985982	2
0	4803	1557.651440516346	2
0	4808	1559.016305121823	1
0	4818	1562.327046304006	0
0	4823	1562.716827254741	1
0	4828	1564.548169085521	1
0	4844	1567.77443689294	3
0	4848	1568.812897022461	2
0	4862	1572.447195052285	0
0	4868	1573.321301073067	1
0	4869	1573.479044141129	0
0	4884	1578.612132138338	1
0	4900	1583.980739709338	0
0	4905	1584.097808289805	2
0	4916	1588.361535907604	1
0	4918	1588.959886696886	0
0	4923	1589.452869989907	1
0	4928	1592.181501028474	1
0	4939	1594.520978810729	2
0	4946	1596.921059439887	0
0	4955	1600.158349213188	1
0	4970	1605.201919133307	2
0	4987	1611.092375133184	3
0	5004	1616.582471893632	4
0	5007	1618.061657905227	3
0	5009	1618.582267273216	1
0	5022	1621.621294637208	2
0	5032	1624.949592214424	0
0	5039	1627.401198677017	3
0	5051	1633.337562751255	1
0	5056	1635.836830087936	2
0	5067	1639.092222487551	4
0	5082	1644.310614046871	2
0	5091	1648.217146052746	3
0	5100	1650.20687072654	3
0	5108	1653.156931273057	2
0	5114	1655.470837851052	2
0	5121	1656.124791320411	3
0	5129	1659.558396502163	2
0	5137	1661.631905575746	3
0	5155	1666.933672543147	3
0	5166	1671.468159154872	2
0	5169	1672.376657610292	2
0	5173	1672.814274839822	3
0	5192	1677.978597450534	3
0	5193	1678.274375544859	2
0	5209	1683.117426770039	3
0	5220	1687.681123392419	2
0	5224	1688.342152420662	3
0	5231	1691.287383118875	2
0	5241	1693.89687513327	4
0	5252	1699.038542073916	1
0	5256	1699.25734387175	2
0	5274	1704.775614987824	5
0	5291	1710.195497525621	1
0	5294	1710.854588359123	4
0	5297	1711.702444868045	1
0	5314	1715.874699648933	5
0	5331	1721.427464595062	2
0	5332	1721.565041103981	0
0	5339	1722.54252304998	1
0	5342	1723.356474901778	4
0	5354	1726.864835738435	3
0	5361	1729.673300061257	0
0	5369	1732.070456437997	4
0	5380	1737.709602936634	1
0	5382	1738.415522623106	3
0	5398	1743.197455166138	4
0	5414	1748.720441754206	2
0	5423	1751.449990910474	1
0	5426	1752.436726005628	3
0	5435	1754.199010201261	2
0	5452	1759.488322339483	3
0	5464	1764.464635476585	3
0	5468	1764.82541874726	4
0	5474	1767.112295102905	2
0	5486	1770.155939271903	3
0	5494	1773.181666275949	2
0	5503	1775.432533921671	1
0	5510	1776.68192965979	2
0	5518	1779.685602706035	1
0	5527	1781.208598640977	2
0	5537	1783.870993297545	1
0	5546	1786.381894797084	3
0	5556	1788.889357443782	3
0	5570	1792.065922323379	2
0	5579	1794.064180973217	1
0	5591	1797.582327171808	0
0	5595	1797.722057463366	4
0	5613	1803.008710844673	1
0	5622	1805.855990954906	0
0	5627	1807.765460312826	2
0	5635	1808.81185384467	5
0	5640	1810.874392921337	0
0	5648	1813.917477998182	1
0	5660	1818.316134330583	4
0	5665	1818.965692888478	5
0	5673	1822.015130103677	1
0	5681	1824.260906265348	2
0	5694	1828.942684312	4
0	5699	1829.606140738351	2
0	5712	1834.309807823384	1
0	5718	1835.341408995909	3
0	5719	1835.423364503657	3
0	5734	1840.807516845174	4
0	5751	1846.538647135485	1
0	5763	1850.244468509681	0
0	5771	1851.832312681245	2
0	5773	1852.512701790196	1
0	5775	1853.242425243252	3
0	5778	1854.021622443333	2
0	5788	1856.920240510719	4
0	5795	1859.679515853751	1
0	5807	1862.781317558138	1
0	5815	1864.953273608346	0
0	5824	1868.117559757081	3
0	5828	1868.251462351529	4
0	5845	1873.529021298977	2
0	5860	1878.694650003219	2
0	5861	1878.785563114559	1
0	5867	1880.244254388957	0
0	5873	1883.129314730061	1
0	5878	1884.219920252448	1
0	5883	1886.309100424402	3
0	5892	1889.476389355024	2
0	5902	1892.795096002052	0
0	5909	1894.588075803125	1
0	5910	1895.379914130197	2
0	5915	1896.496103901412	1
0	5926	1899.697273685362	1
0	5931	1901.028576892565	0
0	5934	1901.995694577806	0
0	5937	1902.875155285468	1
0	5944	1905.012327301314	1
0	5960	1910.331691012716	1
0	5968	1913.057909581692	0
0	5981	1916.219201687954	1
0	5988	1918.682038911034	0
0	5999	1921.513645014723	2
0	6009	1925.182175532334	0
0	6013	1926.603716506272	1
0	6017	1927.440920681923	1
0	6033	1932.732342066706	2
0	6037	1934.068255752323	0
0	6047	1937.998237746299	2
0	6053	1941.682318276025	1
0	6059	1943.437258967195	2
0	6070	1948.984420692079	3
0	6074	1951.949499835141	1
0	6081	1954.40349696553	1
0	6095	1959.679551176258	4
0	6096	1959.701799329367	0
0	6109	1965.032762499756	2
0	6116	1969.404368742949	3
0	6121	1970.548832761819	4
0	6133	1976.193663045295	3
0	6145	1982.07769038621	1
0	6158	1987.275656258218	1
0	6162	1988.284364234652	2
0	6177	1992.540527357018	5
0	6199	1998.38681671023	2
0	6206	2000.333597720714	4
0	6213	2001.515137800476	1
0	6224	2004.321070607515	3
0	6241	2009.19030941033	2
0	6248	2010.022870861456	3
0	6256	2013.223288004399	0
0	6265	2015.175894691605	4
0	6269	2016.790677466543	3
0	6271	2017.341525425318	3
0	6273	2017.497738394766	0
0	6282	2021.009935639096	4
0	6294	2026.196350351438	1
0	6305	2031.126533768952	2
0	6311	2031.965833641818	3
0	6323	2037.515397687905	0
0	6328	2037.887796150517	4
0	6334	2041.456130927893	3
0	6338	2042.528874513225	3
0	6342	2043.262465883974	1
0	6360	2049.164825254815	4
0	6375	2054.221846987956	2
0	6379	2055.720005708161	2
0	6383	2056.683356545628	1
0	6392	2059.147637207058	1
0	6397	2060.057187416821	1
0	6418	2065.626880534689	5
0	6423	2066.757605364657	0
0	6427	2067.502202222704	4
0	6440	2071.116709211838	2
0	6458	2077.024652193763	1
0	6469	2080.415836090335	0
0	6474	2082.061540542051	0
0	6479	2082.751106832639	5
0	6480	2083.51076717628	1
0	6493	2088.417316483331	6
0	6504	2094.164629529926	1
0	6505	2094.320389061466	0
0	6512	2098.175164394428	5
0	6517	2099.330524505113	1
0	6533	2104.594613723687	2
0	6549	2109.909433706894	2
0	6554	2111.747967516069	4
0	6556	2112.067528377399	1
0	6563	2114.308879700487	1
0	6570	2115.663783850146	1
0	6591	2121.304835111599	2
0	6605	2125.822346113504	1
0	6610	2126.482699356272	2
0	6615	2128.400924046639	3
0	6630	2132.458682346155	3
0	6633	2133.143124156974	0
0	6637	2134.389610748153	2
0	6649	2138.028611290499	3
0	6653	2139.736377310704	2
0	6665	2143.213263049952	4
0	6669	2144.692711848184	3
0	6672	2145.159149147685	0
0	6681	2148.992951438527	1
0	6699	2154.974249222779	2
0	6709	2158.537836992065	1
0	6711	2158.803931691335	2
0	6715	2159.700547086774	1
0	6717	2159.860786144505	0
0	6721	2160.110948193117	1
0	6736	2165.574791471005	2
0	6751	2170.867434041571	2
0	6756	2173.172448086083	1
0	6767	2176.846731864145	3
0	6773	2178.624440312266	0
0	6777	2179.845776040338	1
0	6785	2181.949753474208	2
0	6792	2186.552175628022	2
0	6797	2187.87029113108	3
0	6805	2192.162545487981	2
0	6810	2193.035356543722	3
0	6813	2195.519649617139	2
0	6821	2198.411940952992	3
0	6824	2200.050935325564	1
0	6829	2202.793458939527	2
0	6833	2204.058476926988	3
0	6835	2204.650980321804	2
0	6847	2209.425816037223	1
0	6862	2214.564274387198	3
0	6870	2217.317529887773	0
0	6879	2219.614047861888	4
0	6890	2225.327759941338	5
0	6896	2228.290145213486	0
0	6903	2230.793555247827	1
0	6906	2232.530722324849	4
0	6915	2236.718236042649	2
0	6919	2239.24663732352	1
0	6927	2241.797133500917	1
0	6944	2247.787611749485	5
0	6958	2253.643383572806	2
0	6974	2258.99418588285	1
0	6978	2259.865287701245	4
0	6996	2264.421912656747	1
0	7001	2264.868460844966	2
0	7006	2266.488535265434	3
0	7008	2266.892019379765	0
0	7020	2269.944749018873	4
0	7026	2272.410997354072	3
0	7028	2272.900394874041	0
0	7030	2273.846781113531	1
0	7037	2275.285473338325	1
0	7052	2281.071646512017	2
0	7063	2285.09074516303	2
0	7071	2286.610768472772	3
0	7079	2289.94221160933	2
0	7090	2292.605483917516	3
0	7096	2294.845263563208	0
0	7105	2297.637307224093	1
0	7118	2302.609638957885	1
0	7123	2303.625060459364	2
0	7127	2303.626708407883	1
0	7135	2307.069747276834	0
0	7143	2308.98109630495	2
0	7158	2314.057703217954	3
0	7159	2314.578047990213	2
0	7173	2319.247712940906	3
0	7192	2324.928884150457	1
0	7196	2326.853529323007	0
0	7207	2330.088440127085	2
0	7211	2330.244558283823	3
0	7225	2335.750435429855	3
0	7233	2339.47714469174	2
0	7240	2341.354649745158	2
0	7252	2346.611834519888	1
0	7257	2346.973618497836	4
0	7274	2352.247327047863	2
0	7290	2357.59811584139	1
0	7297	2360.576705014096	3
0	7302	2361.750006953019	1
0	7310	2363.314922679912	2
0	7332	2368.669466257559	3
0	7352	2373.837799702536	2
0	7354	2374.242115906202	1
0	7357	2375.098331483543	2
0	7364	2376.867564319282	1
0	7375	2379.326716807669	2
0	7379	2380.414517047811	0
0	7395	2384.604177352039	4
0	7399	2385.602717297146	3
0	7415	2390.126697509315	3
0	7421	2392.366598776307	1
0	7435	2395.99259534315	4
0	7438	2397.492002301262	3
0	7451	2401.46998361754	4
0	7467	2406.822422658091	5
0	7482	2412.553728118769	6
0	7484	2413.174204307259	0
0	7490	2415.539027251529	2
0	7496	2417.845188469623	1
0	7513	2423.676184951325	2
0	7516	2424.857349020659	1
0	7521	2426.377378760951	0
0	7529	2429.22427863185	3
0	7530	2429.493319325722	2
0	7535	2430.84013120329	5
0	7544	2434.284736318278	6
0	7554	2439.439038653855	1
0	7569	2445.211302932582	3
0	7575	2447.316420651852	5
0	7580	2449.080476028485	2
0	7588	2451.100518173303	6
0	7604	2456.224283283807	3
0	7609	2458.431778500318	5
0	7615	2460.746902116339	0
0	7621	2462.10658296081	6
0	7631	2467.515711096113	1
0	7636	2469.510828439486	2
0	7643	2471.506512128622	1
0	7651	2473.106861784353	2
0	7666	2478.889727794097	3
0	7670	2480.457974807699	2
0	7682	2484.017141242043	7
0	7697	2489.314920537869	8
0	7702	2490.76828347274	7
0	7708	2493.764976690872	0
0	7713	2494.624549466648	1
0	7716	2495.771756355994	6
0	7729	2499.634293448643	2
0	7737	2502.525284054331	1
0	7747	2505.513971631878	2
0	7751	2506.298214116357	1
0	7759	2509.927392591484	5
0	7766	2511.345612458183	1
0	7768	2511.905266180508	0
0	7784	2517.070775560566	3
0	7786	2517.516232102407	2
0	7791	2519.489821935651	1
0	7797	2521.333999004092	4
0	7804	2522.567426339022	1
0	7813	2525.768605612332	0
0	7820	2527.576322141101	2
0	7834	2532.667897673787	1
0	7837	2533.011110473999	3
0	7853	2537.990771219715	0
0	7858	2538.517890131099	4
0	7860	2538.649022491298	0
0	7872	2543.684182673225	1
0	7874	2544.937413880715	1
0	7889	2549.327019917306	3
0	7893	2549.4678867741	4
0	7909	2555.379763638366	5
0	7913	2556.606726191469	0
0	7924	2560.788858959217	1
0	7939	2566.063543499213	6
0	7941	2566.882650595037	0
0	7948	2570.102932082481	5
0	7953	2571.2185495547	6
0	7965	2576.688224627402	2
0	7969	2578.318796050378	5
0	7979	2581.842617829794	1
0	7994	2587.609889917657	1
0	7998	2587.651837599462	6
0	8013	2593.041089198317	1
0	8016	2593.432409670552	0
0	8032	2598.283933828117	1
0	8039	2601.147217140875	5
0	8055	2604.186423636039	6
0	8067	2608.233394622916	0
0	8069	2608.440924043294	5
0	8075	2609.321782205251	2
0	8078	2609.818823375738	0
0	8091	2615.220546163849	1
0	8097	2618.034609929541	1
0	8102	2619.953214355621	4
0	8108	2620.973048369631	2
0	8125	2626.001428893067	1
0	8128	2627.141303897136	0
0	8147	2631.937998317879	1
0	8155	2635.382317899487	3
0	8160	2636.726608168797	0
0	8165	2637.035775025374	1
0	8176	2639.959655494891	1
0	8183	2641.1519504335	0
0	8189	2642.536167584591	4
0	8197	2645.673526098948	0
0	8205	2648.189618153962	5
0	8210	2649.403909075537	0
0	8218	2654.020035328808	1
0	8231	2659.096289237262	1
0	8236	2661.09000458882	4
0	8248	2664.537088198354	5
0	8255	2667.693868480973	0
0	8262	2669.784946118481	1
0	8265	2670.579932573484	0
0	8276	2675.028728844132	2
0	8280	2678.459116575535	4
0	8287	2680.959085278911	3
0	8300	2686.780267812311	4
0	8302	2687.958790215196	3
0	8315	2691.895772251998	5
0	8322	2696.296418373119	4
0	8328	2697.350662092444	1
0	8331	2698.691093533647	2
0	8335	2700.321436640339	0
0	8344	2702.573215192881	5
0	8352	2707.799636589243	4
0	8357	2708.561792036284	1
0	8373	2713.8720805943	1
0	8393	2719.104115689638	2
0	8394	2719.468119180295	0
0	8409	2724.994290472473	5
0	8414	2727.359556747363	4
0	8426	2730.173087992006	3
0	8430	2731.381101972422	2
0	8444	2735.92530925013	1
0	8458	2740.483947333878	1
0	8465	2741.539718439103	3
0	8479	2745.64099557593	2
0	8481	2745.661520745483	3
0	8488	2746.87519797543	2
0	8509	2752.001510741421	4
0	8520	2755.469175896025	0
0	8528	2757.338473486713	3
0	8531	2758.770250434283	3
0	8539	2761.185440967319	2
0	8547	2762.994782120221	1
0	8557	2765.949312155369	1
0	8564	2767.616213565806	2
0	8572	2768.973356828558	3
0	8579	2771.045726219542	0
0	8591	2774.442977780941	4
0	8609	2780.344733045203	5
0	8615	2782.449465565727	1
0	8619	2783.34481918404	4
0	8629	2785.528870197944	1
0	8652	2791.443625085754	5
0	8657	2793.272092994652	0
0	8670	2796.462486272677	2
0	8673	2798.118340944168	4
0	8687	2802.112843336071	5
0	8689	2802.364857811127	4
0	8707	2807.862845447845	1
0	8712	2809.850890835973	0
0	8718	2811.781700338003	0
0	8724	2813.357399126281	3
0	8731	2816.650021838374	2
0	8739	2818.897205557673	1
0	8756	2824.538319143	1
0	8768	2828.397138412922	3
0	8772	2829.141302642295	0
0	8781	2830.286179679212	4
0	8783	2831.700690777041	1
0	8796	2835.875083796213	2
0	8811	2841.293732777237	1
0	8820	2843.389502511472	3
0	8823	2844.011724040377	0
0	8826	2844.842608954405	1
0	8834	2847.292104662162	4
0	8845	2851.456020992595	0
0	8852	2853.123628471511	1
0	8860	2855.942920342665	3
0	8870	2858.533613514619	4
0	8872	2859.59259085648	0
0	8886	2864.291483390609	5
0	8897	2870.025634846648	1
0	8905	2872.485871440027	4
0	8917	2875.937963720875	2
0	8934	2881.858076788716	3
0	8939	2883.796942081997	0
0	8946	2886.942641319705	2
0	8950	2887.296874489401	1
0	8965	2892.863850238033	5
0	8967	2893.537657204661	4
0	8975	2896.704093023434	1
0	8983	2898.248097882837	1
0	8998	2902.9784242711	0
0	9005	2904.018522564087	1
0	9025	2909.142732732229	2
0	9037	2911.820740416644	0
0	9047	2914.584805242715	2
0	9052	2916.160490016796	3
0	9065	2920.192374855976	3
0	9080	2926.059553910976	3
0	9081	2926.217353237674	2
0	9097	2931.453369853085	4
0	9100	2932.214621611868	2
0	9115	2936.535066487266	5
0	9123	2939.963656343047	4
0	9125	2940.304425816049	1
0	9134	2942.44003558182	1
0	9155	2948.200642992974	5
0	9173	2953.891582609849	1
0	9177	2954.031565171898	2
0	9178	2954.237029295179	0
0	9185	2956.19707548059	4
0	9196	2959.314669621874	5
0	9213	2965.129673997404	3
0	9220	2967.899547899607	2
0	9228	2970.455268274525	2
0	9230	2971.072227059159	4
0	9243	2975.242409457914	1
0	9249	2976.29955821065	2
0	9256	2978.565081256901	3
0	9260	2979.713026284234	2
0	9271	2982.283833885796	3
0	9278	2985.285340649891	1
0	9287	2987.682860953964	3
0	9303	2993.060064927906	4
0	9306	2994.009198718932	3
0	9322	2998.640265994704	4
0	9328	3000.780164328748	2
0	9340	3004.418768250615	1
0	9342	3005.236443882693	0
0	9358	3009.60144039383	1
0	9360	3010.071263307588	0
0	9378	3015.55605383287	3
0	9379	3015.634553586358	3
0	9393	3021.106769804608	4
0	9396	3021.868773167485	0
0	9400	3023.550984904398	2
0	9409	3026.911123625234	5
0	9417	3031.222803211651	1
0	9422	3032.440988097105	2
0	9428	3035.607201746542	4
0	9434	3037.484819770556	1
0	9449	3043.133156602269	3
0	9457	3046.763757591478	3
0	9462	3048.461799499576	0
0	9466	3048.523299097314	1
0	9481	3054.186488629782	4
0	9491	3058.41385963559	3