version 3
run General-2-20240428-16:41:48-11296
attr configname General
attr datetime 20240428-16:41:48
attr datetimef 20240428-164148
attr experiment General
attr inifile omnetpp.ini
attr iterationvars $0=true
attr iterationvarsd true
attr iterationvarsf true-
attr measurement $0=true
attr network Supermarket
attr processid 11296
attr repetition 2
attr replication #2
attr resultdir results
attr runnumber 2
attr seedset 2
config network Supermarket
config repeat 10
config seed-set 2
config num-rngs 10
config **.use_random_strategy true

vector 0 Supermarket queueSizeOverTime:vector ETV
attr recordingmode vector
attr source updateQueue
attr title queueSizeOverTime
vector 1 Supermarket customerWaitingTime:vector ETV
attr interpolationmode none
attr recordingmode vector
attr source customerFinished
attr title "cust waiting time"
0	7	5.588130795164	1
0	14	11.542543068994	2
0	21	17.492994719185	1
0	31	22.765311119147	1
0	45	27.882004855667	2
0	46	28.487288401695	1
0	48	28.650003333809	1
0	61	33.066927617882	2
0	75	38.243841466494	0
0	79	38.642865861068	3
0	89	43.837596428116	0
0	94	44.060919974698	4
0	97	46.442230452318	3
0	103	49.643161094049	1
0	113	54.799552811775	4
0	126	60.767429635394	1
0	139	66.188645152142	0
0	144	66.387860236223	2
0	149	69.249213589473	3
0	157	72.212383483769	3
0	169	78.022284449543	1
0	185	83.877828787779	4
0	200	89.857554038055	1
0	202	90.181046207437	3
0	204	90.411366601474	2
0	214	93.464736159658	0
0	223	95.316310097929	2
0	239	100.428861974273	4
0	244	102.824796716682	1
0	257	106.40097305947	5
0	262	109.384206866729	1
0	264	109.602312356236	4
0	266	109.812053085886	0
0	273	111.988419841277	1
0	288	117.526303902269	1
0	301	122.047612325288	0
0	307	122.706221216126	5
0	321	127.754984523403	1
0	322	128.261184002389	0
0	324	128.379327009549	0
0	337	133.736388066784	1
0	341	135.175360566705	4
0	347	137.924389541966	0
0	353	139.40389046236	1
0	367	144.675804322586	2
0	380	150.167497943854	0
0	385	150.271059387597	1
0	397	155.708383631428	3
0	402	157.389750599047	0
0	406	159.273304531468	2
0	413	161.630539356034	3
0	420	166.55770997552	3
0	425	166.69092401839	1
0	432	169.284554275337	2
0	441	171.75452925428	2
0	458	177.573741822738	1
0	459	177.822011289887	1
0	464	179.251908579494	1
0	479	182.755096783398	2
0	483	184.407193391352	0
0	496	188.61434358149	3
0	504	191.730237823099	2
0	514	194.145261654399	1
0	520	195.822972462048	0
0	526	197.679493865351	1
0	534	199.200224786533	1
0	547	204.112162229955	2
0	550	204.515081041379	0
0	555	205.160503593042	2
0	557	205.947430630564	1
0	559	206.284963984744	1
0	572	211.090381525691	2
0	587	216.25972074736	2
0	592	217.893935256173	1
0	596	219.550180864638	0
0	603	221.756806837163	1
0	614	226.628824332267	1
0	618	226.887271104614	2
0	627	231.163592116329	0
0	633	232.84517783858	1
0	634	233.042954771434	1
0	649	238.152332132218	2
0	661	242.784464001195	0
0	667	244.116168504582	3
0	674	247.096391941189	2
0	676	247.891512696167	0
0	681	249.800804721891	1
0	691	255.060946208193	1
0	708	261.059348839103	2
0	723	266.182382687694	3
0	738	271.848597614561	1
0	746	274.526680450072	0
0	749	274.911470938243	1
0	758	276.978256759933	2
0	769	282.450016990771	0
0	772	282.627319518246	1
0	776	282.88731053914	2
0	777	283.167917526444	2
0	786	287.616587294266	1
0	790	288.205425341614	1
0	805	293.615907793865	2
0	811	295.822841608081	0
0	821	299.021210111212	1
0	822	299.192138369079	1
0	838	304.704141896917	2
0	845	307.416790052552	1
0	851	309.323429343059	1
0	853	309.350886524423	0
0	857	309.708793994505	1
0	859	310.46274075599	0
0	870	315.47475349647	2
0	873	316.381540289498	1
0	881	320.374871628592	0
0	885	321.200861123856	2
0	891	326.553092556425	1
0	895	326.860073236981	2
0	899	331.684973285767	1
0	903	332.114010419696	1
0	906	334.609445716023	0
0	913	337.519112475449	1
0	919	341.98845115269	0
0	925	343.101159605197	1
0	935	348.408354363636	2
0	947	354.336473325732	2
0	952	356.999539342127	1
0	960	360.294199211988	2
0	969	366.015334814669	1
0	973	366.259240006329	2
0	984	371.566323225852	3
0	995	377.457964223577	1
0	1001	379.926061032458	2
0	1007	381.430974267192	1
0	1013	382.589562932728	2
0	1014	382.609392515616	1
0	1029	387.617795350496	2
0	1044	392.686294641579	1
0	1055	396.448754026438	0
0	1063	398.278613782721	2
0	1065	398.566473298356	1
0	1081	403.558258987731	1
0	1090	407.037273774621	0
0	1097	408.658464278794	3
0	1099	409.083733638517	0
0	1105	412.603529766671	1
0	1112	414.137522960316	1
0	1113	414.684312101804	2
0	1126	419.303832242034	0
0	1131	419.868275298273	1
0	1134	420.702714265909	0
0	1140	424.519010684338	0
0	1145	425.793359111065	3
0	1152	431.572906787975	1
0	1159	436.52177325322	2
0	1164	437.331010715107	1
0	1182	443.046438941036	3
0	1202	449.015809213512	4
0	1209	452.127555529706	0
0	1216	454.625111649514	1
0	1222	456.893924512087	3
0	1225	458.068681335778	0
0	1232	460.053302161631	4
0	1234	460.868633768989	0
0	1242	465.216086871459	5
0	1243	466.629724576372	4
0	1250	470.935450962514	5
0	1257	476.310492496241	1
0	1270	482.2809741525	6
0	1272	483.050254111529	0
0	1279	487.507058552934	7
0	1282	489.760165604182	6
0	1287	492.714597540211	1
0	1288	493.259267659393	5
0	1299	498.709646571197	1
0	1303	500.156938786852	0
0	1313	504.0737602592	6
0	1317	506.731821588243	5
0	1325	509.690836976051	1
0	1327	510.440651950662	0
0	1339	514.712544637967	1
0	1344	516.208952087211	0
0	1354	520.284479446478	6
0	1365	525.587144648658	2
0	1366	525.619121199942	5
0	1379	530.626306548251	1
0	1386	534.121685237159	0
0	1393	536.044987137431	3
0	1404	541.24651211966	1
0	1409	543.484458799708	2
0	1412	543.914103750491	0
0	1421	547.00941310404	1
0	1435	552.15518498188	2
0	1439	554.002713662458	4
0	1453	558.026158207796	3
0	1454	558.286701038712	2
0	1458	559.672378498129	1
0	1470	563.04861433129	3
0	1487	568.945728370689	2
0	1495	571.195534500878	2
0	1498	572.389539582774	3
0	1502	573.335886385877	2
0	1509	574.829993648689	3
0	1526	580.545797451401	1
0	1530	581.686712879109	1
0	1537	583.522481484569	1
0	1550	586.119751516498	2
0	1571	591.759039598053	3
0	1576	593.338964533878	2
0	1584	595.735070316823	0
0	1591	596.849670268597	3
0	1606	601.975936939476	2
0	1608	602.101166577894	1
0	1626	607.090520233849	4
0	1628	607.764360867552	3
0	1631	608.687289122724	2
0	1638	611.387382319896	0
0	1643	612.639541766375	3
0	1655	618.442000091077	1
0	1670	623.919116797625	1
0	1679	626.23325373907	2
0	1682	627.88775321829	1
0	1692	629.244556590217	2
0	1713	634.629863684765	4
0	1715	635.272721088839	3
0	1733	639.685949729291	3
0	1748	644.235822206247	2
0	1755	645.618494655472	2
0	1761	647.418733295165	1
0	1763	647.666178512623	0
0	1766	649.067323073279	1
0	1774	651.197460114025	1
0	1781	652.884890538404	2
0	1789	654.727129673818	0
0	1798	656.806780501735	2
0	1814	662.482221144252	3
0	1825	666.743883855759	0
0	1831	668.31666193204	3
0	1841	673.95009431615	2
0	1845	674.284426879836	3
0	1852	677.588533764469	2
0	1859	679.886385012883	1
0	1864	681.860081539601	2
0	1877	685.612950589507	3
0	1893	691.333791198441	3
0	1894	691.455088083746	2
0	1909	696.354656246956	1
0	1932	701.757619485957	4
0	1934	702.234324669576	3
0	1951	707.051094080321	2
0	1960	709.132077931774	1
0	1967	711.118335852863	0
0	1975	712.69831191306	1
0	1978	713.357787667768	2
0	1991	716.461764697333	1
0	1997	717.659093933876	0
0	2001	717.726796848234	3
0	2017	723.282549091848	2
0	2033	728.376560982317	3
0	2050	734.107375616208	1
0	2053	734.896196682581	2
0	2057	735.499931272469	2
0	2072	739.640594846336	2
0	2076	741.013403030693	0
0	2086	745.041184893811	1
0	2091	745.125377678778	3
0	2107	750.914903342724	1
0	2112	752.720204510019	2
0	2130	756.470989588648	2
0	2153	761.772908814019	3
0	2158	763.448958351628	2
0	2164	764.846000323647	1
0	2170	766.16491188994	0
0	2177	767.154397494626	3
0	2195	772.73274674872	3
0	2207	778.224733009466	2
0	2212	778.575110827108	2
0	2225	782.939076884294	1
0	2231	783.77228401485	1
0	2237	786.281394789338	0
0	2249	789.42873135442	3
0	2255	792.130028372632	2
0	2265	795.151408988285	1
0	2282	799.665020414629	0
0	2286	800.323759387481	4
0	2297	805.106997383406	3
0	2301	805.665157192155	4
0	2304	806.249650517132	1
0	2308	807.338511221462	0
0	2318	810.830524183811	1
0	2319	810.915438984989	0
0	2323	812.796311745183	3
0	2332	816.05551319779	1
0	2348	822.010747872993	1
0	2369	827.894147946734	2
0	2379	831.350483107374	2
0	2388	833.239825985396	3
0	2397	836.135290856234	2
0	2407	838.723350906281	2
0	2422	843.636976872223	0
0	2428	844.461545675529	1
0	2434	846.032431452069	1
0	2451	849.877310910497	3
0	2475	855.43600141979	3
0	2477	856.545697963099	2
0	2495	860.947646624178	4
0	2507	864.508555127069	3
0	2516	866.303065359362	2
0	2526	869.453610306491	1
0	2537	872.077309826391	2
0	2548	875.39146577881	0
0	2554	877.030049442547	1
0	2559	877.800392021427	3
0	2576	883.635079913775	2
0	2578	884.042178814882	1
0	2580	884.284097944382	2
0	2583	885.317663419528	2
0	2596	889.248811058935	3
0	2613	894.698659548771	1
0	2632	900.265492337991	3
0	2635	901.08322849613	2
0	2645	904.026836898179	0
0	2652	905.329956192293	2
0	2669	910.991844181672	4
0	2670	911.018309474808	3
0	2672	911.488520656596	1
0	2675	912.109522032202	0
0	2677	912.14521635615	2
0	2686	916.873240279036	1
0	2696	920.336768739743	1
0	2705	922.820776588519	3
0	2719	928.109769132922	4
0	2723	929.172649613117	0
0	2734	933.363324789333	5
0	2736	934.804413800704	4
0	2738	935.014078513257	0
0	2745	938.766637779542	1
0	2755	943.867492233173	1
0	2756	944.617471793777	3
0	2762	946.862115795726	0
0	2769	949.021276058399	1
0	2775	951.232210541729	0
0	2785	954.075515902837	2
0	2792	958.287961774151	2
0	2798	959.96008420247	3
0	2810	965.151899022054	1
0	2811	965.294153826431	1
0	2821	969.633688130528	2
0	2826	970.227716133934	2
0	2844	975.951012632581	2
0	2846	976.721347681243	1
0	2854	979.693788245788	1
0	2862	981.925003037792	2
0	2863	982.299043361682	0
0	2871	985.88609634608	1
0	2878	987.754350882959	3
0	2880	988.595809375979	2
0	2891	992.899197611496	1
0	2894	993.511225148573	0
0	2907	998.288013522051	3
0	2915	1003.458099922402	0
0	2919	1004.006476874001	1
0	2925	1006.840906405583	2
0	2932	1009.320870755011	1
0	2935	1010.310367991793	1
0	2939	1012.020704951947	0
0	2948	1014.840787098979	1
0	2956	1017.907156461039	0
0	2965	1020.403533529028	1
0	2978	1025.732406332161	2
0	2997	1031.143312396252	3
0	3005	1035.508135359971	0
0	3011	1036.372651621703	1
0	3017	1039.406254936827	2
0	3021	1040.587295741311	0
0	3027	1041.446056075631	1
0	3028	1041.636211874898	0
0	3040	1047.113267981684	3
0	3049	1052.564812048227	0
0	3053	1052.631351930326	4
0	3060	1057.819291378142	1
0	3065	1060.989503879802	3
0	3074	1063.772730125816	1
0	3089	1069.010388007856	4
0	3095	1071.547288258447	0
0	3098	1072.609187421742	3
0	3105	1074.965144751829	1
0	3108	1076.230401027251	0
0	3118	1080.614741729109	1
0	3127	1084.526270821226	0
0	3132	1085.625201035992	1
0	3139	1088.858200301535	0
0	3147	1091.547995311676	4
0	3159	1097.073244163769	5
0	3162	1098.346827839853	0
0	3169	1102.532370503296	1
0	3173	1104.432861786805	4
0	3183	1108.276082819098	1
0	3193	1112.036592770487	3
0	3199	1113.61070787581	1
0	3201	1114.024744685044	0
0	3211	1117.334736727181	2
0	3218	1119.127482698302	2
0	3222	1120.554031825744	0
0	3230	1124.749955342852	1
0	3234	1124.801228957021	3
0	3247	1130.766530644385	2
0	3254	1135.619853746502	2
0	3260	1136.713509756377	1
0	3269	1140.355952900608	1
0	3276	1142.298718714392	3
0	3282	1144.390357264437	0
0	3287	1146.302370499706	2
0	3293	1147.439560863193	2
0	3306	1152.566357349515	3
0	3317	1157.573906163922	3
0	3322	1159.78081022518	2
0	3330	1162.818280846583	4
0	3340	1168.477726722839	1
0	3345	1170.108597786865	3
0	3357	1173.697364075347	4
0	3359	1174.101447287489	1
0	3363	1175.122742491316	0
0	3374	1179.657179138861	2
0	3386	1185.278603866934	1
0	3388	1186.4530003554	1
0	3403	1191.161013883078	2
0	3408	1192.449277622392	3
0	3422	1196.673788140533	2
0	3423	1196.894719644805	1
0	3438	1201.907451787503	2
0	3451	1207.008463965612	2
0	3455	1207.155571887042	3
0	3457	1208.463705759268	1
0	3461	1209.034096103632	2
0	3474	1212.61238085805	3
0	3475	1213.023064582263	2
0	3490	1217.846698993356	3
0	3506	1223.292088958207	4
0	3509	1224.132523054031	0
0	3511	1224.177500240041	3
0	3521	1228.634833176393	3
0	3531	1234.118086555388	2
0	3535	1234.181673960999	3
0	3546	1240.065908748895	1
0	3561	1245.318365779013	4
0	3565	1247.786463162275	3
0	3570	1248.755438080876	2
0	3580	1251.005401631125	3
0	3587	1254.179248382808	0
0	3592	1255.440261915796	2
0	3598	1257.005034996901	3
0	3612	1262.952924486488	1
0	3626	1268.337867650907	1
0	3635	1271.414788111932	2
0	3639	1272.53892316215	2
0	3648	1274.180744078248	3
0	3651	1275.13816519152	0
0	3662	1279.076443116883	2
0	3664	1279.325811161083	0
0	3668	1279.447461226727	1
0	3674	1281.775215281527	0
0	3685	1284.93496341771	3
0	3696	1290.005308962898	1
0	3712	1295.167717035399	1
0	3713	1295.556667675152	0
0	3727	1300.301042123237	4
0	3728	1300.524374849282	1
0	3738	1303.889257517874	3
0	3745	1305.648873013449	1
0	3746	1306.041943521942	0
0	3748	1306.59671663353	2
0	3755	1308.754196354193	0
0	3762	1310.692520960472	2
0	3774	1315.712545541353	3
0	3787	1321.552350949268	1
0	3792	1323.094553640581	1
0	3803	1327.412618627535	2
0	3807	1327.435030701808	2
0	3823	1332.902566384296	1
0	3824	1333.364682974528	0
0	3841	1338.735812408389	3
0	3843	1339.466885440638	1
0	3846	1340.029416929469	0
0	3858	1344.409015487186	2
0	3869	1349.809656789997	1
0	3876	1352.672691602022	2
0	3885	1354.84575420246	1
0	3894	1357.789229394863	1
0	3906	1360.632359171989	2
0	3908	1360.92623941205	0
0	3913	1362.380662284796	1
0	3916	1362.988971664575	0
0	3924	1366.265008055376	2
0	3937	1371.798823122172	3
0	3950	1377.536974680381	1
0	3956	1379.770464042671	0
0	3958	1380.288042756734	2
0	3962	1382.107742139133	1
0	3966	1383.063165154079	1
0	3970	1384.545128055494	0
0	3980	1388.541114158001	1
0	3984	1390.219905037322	1
0	3997	1393.86006660853	1
0	3998	1394.332579223794	0
0	4017	1399.632852420215	2
0	4021	1400.56395545963	0
0	4033	1405.298563657798	2
0	4043	1410.312920778528	3
0	4049	1413.749351891692	1
0	4051	1414.058739155419	2
0	4059	1416.238128039524	3
0	4070	1421.881615509516	1
0	4082	1426.064116094614	0
0	4086	1427.520415503768	0
0	4090	1427.639892596988	1
0	4102	1432.970069643347	1
0	4118	1438.80837386195	1
0	4120	1439.316372550681	2
0	4139	1443.895287569383	2
0	4140	1444.025899175094	0
0	4155	1449.208119106715	2
0	4170	1454.492723160196	1
0	4175	1454.754151971083	2
0	4178	1456.344232235109	1
0	4191	1459.854679671818	2
0	4193	1461.135969232189	1
0	4202	1464.352029728707	1
0	4208	1465.534703690795	2
0	4222	1470.717885588766	1
0	4226	1471.306567714786	1
0	4227	1471.320770496973	0
0	4231	1472.840369968911	0
0	4235	1473.938542100258	1
0	4239	1476.321945417213	0
0	4243	1476.428777484227	1
0	4253	1481.668023498034	1
0	4260	1485.369453746479	0
0	4266	1487.408640959537	2
0	4279	1493.266518375142	1
0	4294	1499.265971807767	3
0	4306	1504.305734919971	0
0	4310	1504.567312934906	2
0	4315	1507.202356050259	2
0	4317	1507.259499161857	1
0	4319	1508.777503487074	1
0	4324	1510.189775421056	1
0	4340	1515.36443733471	2
0	4341	1515.56565740542	0
0	4344	1516.13242475095	0
0	4353	1520.547134718164	1
0	4357	1523.596725746295	0
0	4362	1525.907717240281	1
0	4372	1531.792776099644	1
0	4377	1533.54023858847	1
0	4391	1537.618036384932	2
0	4404	1542.821930427109	3
0	4412	1546.224027964058	2
0	4422	1548.636579055344	3
0	4423	1548.83152720612	0
0	4435	1554.304157841956	1
0	4439	1555.577412717399	0
0	4448	1559.895374828024	4
0	4458	1565.503975571372	0
0	4462	1565.516607790725	5
0	4469	1571.148264341294	6
0	4473	1574.976983465375	5
0	4478	1576.856874869676	1
0	4490	1582.850709412485	1
0	4503	1588.783789399551	1
0	4513	1591.454387943149	0
0	4516	1591.99019500439	4
0	4524	1594.488627844961	2
0	4525	1594.513854697352	1
0	4541	1599.810117551596	5
0	4558	1605.508277480495	6
0	4573	1610.675821313406	7
0	4590	1616.089664764707	1
0	4598	1618.076485732693	0
0	4600	1618.960017901968	0
0	4608	1621.101766366051	1
0	4609	1621.132908649629	6
0	4624	1626.346793827839	2
0	4643	1631.60719087604	7
0	4647	1633.35373510991	6
0	4657	1636.686234694212	1
0	4678	1642.210210343828	7
0	4686	1644.513188264218	6
0	4701	1648.074742976814	2
0	4704	1648.641507546072	1
0	4717	1652.403996698449	1
0	4720	1653.104466309306	5
0	4724	1653.130706906091	2
0	4741	1658.210547960248	4
0	4746	1658.846154931472	5
0	4756	1662.434882055038	4
0	4766	1664.590135883312	5
0	4772	1666.000018827854	0
0	4786	1670.412979520862	2
0	4791	1672.628909322903	1
0	4803	1676.162727691005	3
0	4806	1676.980599596057	2
0	4815	1681.071653175406	0
0	4820	1681.612652367684	1
0	4821	1681.824106249143	4
0	4826	1683.674311777926	3
0	4836	1686.822754771919	4
0	4853	1692.370910689938	3
0	4857	1693.554933327017	3
0	4859	1693.921511968255	2
0	4873	1698.028230117872	4
0	4889	1703.807927982887	2
0	4895	1706.294108884064	1
0	4900	1707.565329809563	1
0	4907	1709.051952191401	1
0	4911	1710.468541462439	3
0	4927	1715.012577236403	2
0	4950	1720.645373309735	2
0	4955	1721.778328952735	0
0	4958	1722.349161729216	2
0	4971	1726.494724572642	1
0	4979	1728.339551126124	0
0	4981	1728.633786353869	1
0	4992	1731.916197251301	3
0	5006	1737.098151281016	4
0	5008	1737.48388931563	0
0	5012	1739.117684000992	3
0	5020	1742.386906689271	4
0	5028	1746.294992374612	3
0	5034	1747.772850343497	1
0	5047	1753.393329162389	2
0	5052	1754.482257345814	2
0	5055	1755.439455913848	1
0	5063	1757.939141807033	0
0	5068	1758.505129841162	1
0	5083	1763.897026157944	1
0	5086	1764.337212366755	1
0	5103	1768.937073808402	2
0	5119	1773.961307580588	1
0	5126	1774.862575275596	3
0	5144	1779.91321176291	2
0	5167	1785.416811200329	3
0	5178	1789.008288643214	2
0	5183	1789.829386453385	2
0	5192	1791.257030095444	2
0	5197	1792.875127928218	1
0	5215	1796.647805723133	3
0	5220	1798.466962683486	0
0	5236	1802.428001598692	3
0	5246	1806.093348388684	2
0	5253	1807.728037412515	2
0	5271	1813.186186400712	3
0	5279	1816.22460052919	2
0	5288	1819.185030095283	3
0	5293	1821.264650359986	2
0	5297	1823.066377227664	1
0	5303	1824.452747742184	4
0	5321	1829.925788689409	5
0	5325	1832.250637904053	4
0	5329	1833.98755992042	3
0	5334	1834.940513128652	3
0	5338	1836.028187130353	2
0	5350	1840.141817626548	4
0	5354	1842.209758824215	3
0	5364	1845.729164869529	1
0	5386	1851.653348393277	3
0	5401	1855.619430058876	0
0	5409	1857.620968746491	2
0	5424	1862.848989289258	4
0	5435	1867.227216595907	2
0	5441	1868.252892586407	3
0	5453	1873.103043199056	2
0	5457	1873.45724017383	3
0	5458	1874.074352978974	3
0	5472	1878.703349793101	4
0	5486	1883.833880287832	5
0	5497	1887.561413235967	4
0	5504	1888.914344701454	3
0	5506	1889.720839132217	2
0	5511	1891.355342202476	2
0	5516	1893.638315528642	1
0	5520	1894.335347126009	3
0	5535	1899.79475343251	1
0	5553	1905.658971206173	2
0	5557	1905.661989042306	5
0	5571	1910.673862441679	2
0	5585	1913.605481762209	4
0	5598	1916.207880975682	3
0	5613	1921.346580089431	0
0	5615	1921.414311661507	2
0	5622	1922.187603096248	5
0	5639	1928.015330477155	6
0	5642	1928.590059761895	1
0	5647	1930.59208393493	1
0	5658	1933.634809459795	2
0	5673	1939.024678091987	7
0	5674	1939.591121876266	1
0	5688	1944.883607723986	2
0	5689	1944.941475510371	0
0	5691	1945.093375955364	6
0	5693	1945.718249845555	1
0	5708	1950.789281792709	1
0	5722	1956.607709951935	2
0	5739	1962.11003295123	3
0	5756	1967.131246848967	2
0	5760	1969.07770755643	2
0	5764	1970.75651637244	5
0	5773	1972.859712725975	3
0	5790	1978.819138518306	3
0	5792	1979.507055165247	2
0	5805	1984.139267462077	6
0	5816	1988.564227568919	2
0	5822	1989.671319910096	3
0	5826	1990.944739508908	1
0	5829	1991.92191747786	5
0	5832	1992.633955628616	4
0	5842	1994.981949523095	5
0	5845	1995.640003785729	4
0	5861	2000.442009653434	4
0	5870	2004.291228296235	0
0	5878	2006.36185835116	1
0	5880	2007.088207124855	3
0	5897	2012.149196628252	2
0	5899	2012.379291584488	2
0	5906	2015.855651956754	1
0	5916	2018.116909389621	5
0	5917	2018.203192936493	4
0	5932	2023.287409809422	1
0	5942	2026.51569979522	1
0	5954	2028.767870409418	2
0	5963	2031.741362150297	1
0	5975	2034.30171351368	2
0	5984	2036.986027784299	0
0	5992	2039.738724865837	0
0	5997	2039.838528691329	3
0	6001	2041.87420304085	3
0	6008	2045.598288598243	2
0	6012	2045.717067447029	1
0	6025	2050.823894723788	1
0	6026	2051.267662268253	0
0	6045	2056.614431789149	4
0	6058	2062.182709391699	1
0	6064	2063.960176213416	0
0	6074	2067.370199622591	0
0	6079	2067.702321179448	3
0	6082	2070.25164316886	3
0	6091	2073.095075414054	4
0	6099	2078.402156401431	2
0	6103	2078.499934937809	1
0	6110	2081.319519753455	3
0	6124	2084.457506735348	4
0	6133	2088.877166413591	1
0	6140	2089.891826376091	2
0	6149	2093.869887562241	1
0	6155	2095.351631704257	1
0	6172	2100.667951821122	2
0	6177	2101.573016188927	1
0	6179	2102.056486069227	0
0	6185	2104.057934242769	3
0	6194	2106.661909758584	1
0	6214	2112.494011991662	2
0	6220	2114.781304362003	0
0	6232	2117.956358718923	2
0	6234	2118.44733276894	1
0	6238	2119.656235932259	2
0	6249	2123.02391689667	1
0	6261	2126.798627631628	1
0	6271	2128.741071739239	2
0	6273	2129.477502767232	1
0	6283	2131.946522838559	0
0	6288	2132.832290664554	0
0	6296	2134.622571543563	3
0	6308	2139.64501341689	1
0	6320	2145.045335552195	2
0	6337	2150.641276911372	1
0	6348	2154.690275970849	2
0	6351	2154.991536654767	0
0	6356	2155.833643988479	1
0	6372	2160.933592226595	3
0	6394	2166.550708365633	3
0	6398	2167.476688230298	2
0	6408	2170.063107182393	0
0	6417	2172.233535077429	3
0	6427	2176.38476822968	2
0	6433	2177.250294500037	1
0	6434	2177.651783776124	0
0	6446	2182.699540737089	1
0	6450	2182.821762487066	2
0	6451	2182.911032151898	2
0	6468	2187.914915150504	3
0	6480	2192.701241927578	0
0	6485	2193.221580422257	3
0	6488	2195.546310857871	2
0	6498	2198.501464908716	1
0	6514	2204.399699087727	2
0	6519	2207.159043254101	2
0	6530	2209.6377445506	1
0	6550	2215.218236832886	3
0	6572	2220.807504036936	3
0	6587	2225.277848646865	2
0	6589	2225.638219997641	0
0	6594	2225.944504897815	3
0	6601	2227.685747060927	1
0	6612	2231.191988667945	4
0	6616	2232.638244195611	2
0	6619	2233.948548379473	1
0	6622	2234.469151206087	3
0	6626	2236.078793264698	2
0	6632	2236.940591917612	1
0	6633	2237.208900144443	0
0	6648	2242.091150515486	1
0	6668	2247.704277876305	2
0	6687	2252.786409572006	3
0	6688	2252.999802867185	0
0	6695	2255.117604132049	0
0	6698	2255.965001552022	1
0	6700	2256.751738806959	2
0	6706	2257.922081178293	2
0	6715	2261.780964074778	1
0	6721	2263.752039656282	3
0	6723	2264.175843846058	0
0	6730	2269.028652535292	1
0	6742	2274.220456682385	4
0	6751	2279.671064117697	1
0	6767	2284.689949667786	2
0	6771	2286.578679033558	3
0	6784	2290.515708441154	4
0	6801	2295.807891103445	5
0	6802	2296.020941465635	1
0	6807	2297.866693316617	0
0	6810	2299.00244057342	0
0	6816	2301.419136567979	1
0	6827	2306.617920261581	6
0	6841	2312.540699627024	2
0	6844	2313.841835024071	5
0	6849	2317.099497368681	1
0	6854	2317.898501148454	6
0	6856	2318.842146032728	0
0	6864	2323.377409663291	1
0	6877	2329.363662945113	7
0	6883	2332.669972812993	6
0	6889	2334.419944107772	1
0	6907	2339.867197437451	2
0	6910	2341.732415164829	0
0	6919	2345.5490891086	3
0	6921	2345.846749067896	2
0	6932	2351.056884884608	1
0	6934	2352.129309336658	5
0	6950	2357.031945783884	6
0	6966	2362.88908565045	2
0	6975	2366.730686574363	5
0	6983	2368.484342221642	6
0	6984	2369.05803172291	1
0	6998	2373.542062057421	2
0	7010	2378.012818950236	1
0	7016	2379.291639887734	3
0	7032	2384.464134233311	2
0	7036	2385.975989605537	5
0	7047	2390.00347576873	3
0	7057	2394.614392397234	2
0	7063	2395.736124154651	6
0	7074	2400.361246185733	2
0	7081	2401.327814809285	1
0	7101	2406.611910816986	7
0	7105	2407.403667859276	1
0	7123	2412.372521986259	2
0	7126	2413.022698332447	1
0	7131	2414.015154088384	6
0	7143	2417.735169326659	2
0	7156	2420.720444793117	5
0	7169	2422.901570391381	6
0	7176	2425.335773281877	1
0	7191	2428.455706037586	2
0	7211	2433.504497746827	1
0	7215	2433.971688186988	2
0	7219	2434.924356246253	5
0	7238	2439.240667746408	6
0	7240	2439.741925749936	1
0	7242	2439.85426557414	0
0	7257	2445.206678323221	7
0	7272	2450.575257868046	2
0	7282	2454.364173510469	1
0	7286	2455.348714035128	1
0	7292	2455.71790951002	2
0	7300	2459.279630560081	6
0	7308	2461.004121406475	7
0	7320	2466.230776756309	1
0	7341	2471.806079785112	2
0	7347	2473.120087404742	1
0	7365	2477.411773414589	8
0	7368	2477.887282292249	1
0	7385	2482.637566687079	9
0	7388	2483.502273095192	8
0	7395	2485.292432633468	0
0	7406	2487.868800842674	9
0	7411	2490.28535300657	0
0	7422	2493.782478648709	2
0	7423	2494.183890468333	1
0	7433	2498.809405685175	10
0	7439	2501.437782558504	0
0	7445	2503.992996661696	1
0	7455	2509.783591873949	1
0	7461	2512.466971625228	9
0	7464	2513.022512367117	0
0	7471	2515.32809331711	1
0	7486	2520.343816261046	2
0	7492	2523.062400820087	0
0	7501	2525.785345532006	3
0	7505	2527.276902413933	2
0	7516	2531.419197250396	1
0	7526	2536.012070952105	1
0	7529	2536.307876780867	0
0	7533	2536.61091876566	2
0	7542	2542.247810271803	8
0	7546	2542.266236092668	1
0	7553	2545.495584226335	1
0	7560	2547.410912916768	2
0	7571	2551.991009190218	0
0	7576	2553.122764728503	3
0	7588	2558.229504391091	9
0	7599	2563.768166919012	1
0	7604	2565.472378441948	8
0	7615	2569.161490604986	4
0	7624	2572.932234940822	3
0	7633	2574.96479124623	9
0	7647	2579.981690002145	2
0	7665	2585.572826095164	4
0	7680	2590.930558033526	10
0	7688	2594.119098838419	9
0	7692	2595.372224469677	1
0	7697	2596.089186110074	2
0	7699	2596.478190623693	3
0	7714	2601.31881456101	3
0	7727	2606.522532491721	2
0	7732	2607.034965222708	10
0	7742	2611.06638292014	2
0	7745	2611.3866076821	9
0	7749	2612.778158250737	3
0	7766	2617.786738167756	10
0	7774	2621.9397834423	9
0	7781	2623.175464748178	3
0	7800	2629.104569422087	4
0	7814	2634.155748834374	1
0	7818	2635.092355570176	3
0	7820	2635.278931723448	2
0	7836	2639.454434483318	2
0	7857	2644.535463670973	10
0	7861	2645.298335383763	9
0	7874	2649.451268420788	8
0	7879	2649.791729566181	9
0	7888	2652.457783119293	1
0	7901	2655.710472332552	2
0	7906	2656.913876889274	2
0	7910	2657.465828817804	1
0	7916	2659.629774816923	1
0	7918	2659.719611036242	8
0	7925	2660.760807313496	3
0	7930	2662.278464081355	0
0	7941	2665.75998857792	0
0	7945	2665.857927605748	4
0	7951	2669.465003354358	7
0	7956	2671.21242550214	3
0	7960	2671.28924434749	8
0	7971	2676.803258140111	4
0	7981	2681.998954292392	1
0	7986	2683.649429168202	7
0	7997	2687.304690738679	2
0	8005	2691.15598311241	3
0	8007	2691.713826203259	1
0	8013	2693.255471790214	1
0	8035	2698.990654634084	8
0	8043	2701.700586101389	7
0	8053	2704.519463932147	2
0	8054	2704.58007725806	0
0	8064	2707.792120382195	2
0	8074	2710.13463732042	1
0	8080	2711.987564614979	1
0	8095	2715.579969559569	8
0	8117	2721.024502508581	2
0	8136	2726.590710441588	3
0	8140	2727.545305985265	1
0	8146	2729.101345008128	0
0	8149	2729.627174624008	7
0	8151	2730.094191199288	2
0	8160	2732.110482949071	8
0	8165	2734.14084475686	0
0	8175	2737.377794309292	9
0	8177	2738.228077477313	1
0	8188	2743.20372956107	2
0	8193	2745.471659740665	8
0	8201	2748.886867321102	1
0	8209	2751.601350563933	0
0	8212	2753.072544913275	1
0	8214	2753.125955278867	7
0	8220	2754.550387938745	8
0	8231	2760.089210227836	1
0	8246	2765.25519978698	2
0	8262	2771.17962895637	1
0	8283	2776.493429818895	2
0	8295	2780.062730806766	0
0	8299	2781.672269131639	7
0	8304	2782.047853832139	3
0	8319	2787.182404073892	1
0	8335	2792.2102013398	1
0	8342	2793.073483373975	4
0	8363	2798.337874936178	2
0	8368	2799.511748595165	6
0	8370	2800.106761548207	3
0	8384	2803.568009219138	4
0	8403	2808.627833793644	5
0	8425	2813.816270773072	2
0	8427	2814.451538548227	1
0	8429	2814.985641872746	1
0	8434	2816.541139810582	0
0	8445	2819.012185913749	7
0	8459	2824.616997623472	4
0	8463	2824.63451052737	2
0	8474	2829.807650668665	6
0	8478	2830.069641071842	5
0	8494	2835.600915872031	1
0	8500	2837.467713734953	1
0	8509	2839.998378760535	4
0	8517	2841.048183169919	2
0	8518	2841.715398529547	5
0	8529	2845.470397391012	3
0	8538	2846.723125451947	6
0	8550	2849.983912047467	5
0	8553	2850.792322505853	0
0	8561	2852.50963107916	1
0	8580	2857.961884684399	6
0	8593	2862.092869873397	2
0	8600	2863.023324131271	3
0	8603	2863.77076508466	1
0	8621	2868.777446715631	7
0	8637	2873.486175315923	6
0	8644	2874.282973897648	2
0	8650	2875.966217783165	0
0	8656	2878.65694757563	1
0	8661	2879.451433866522	2
0	8663	2880.304163553056	5
0	8665	2880.435457537421	2
0	8668	2881.519920011985	4
0	8671	2882.092601869607	3
0	8681	2884.71082546609	3
0	8698	2889.926140862056	4
0	8700	2890.427248693539	3
0	8705	2891.903493481575	2
0	8716	2895.492974656871	4
0	8717	2895.881514361247	3
0	8727	2898.85982056044	1
0	8735	2901.104698637039	3
0	8750	2906.773644165371	2
0	8755	2907.090835678861	1
0	8775	2912.402741653616	3
0	8789	2916.217665406297	2
0	8797	2917.496694619306	3
0	8807	2920.634306626399	0
0	8810	2921.342254424938	0
0	8817	2923.189213617476	4
0	8828	2928.94083290338	1
0	8834	2931.547250593784	0
0	8837	2931.967527653911	3
0	8840	2933.629436434597	2
0	8845	2934.766544305724	4
0	8858	2940.539711633236	5
0	8873	2946.405742676933	3
0	8885	2951.562208913504	1
0	8893	2955.001924092304	4
0	8900	2956.921687817206	5
0	8905	2958.247081854032	2
0	8917	2962.13967976999	2
0	8918	2962.454202249419	4
0	8920	2962.49381871196	1
0	8938	2967.724343599756	2
0	8944	2970.179559832211	3
0	8954	2973.426307267281	3
0	8959	2974.420038390322	1
0	8964	2975.940793408313	0
0	8973	2978.501493485649	4
0	8983	2984.401828684849	1
0	8995	2989.490519365882	2
0	8999	2989.887529301695	3
0	9000	2990.206689427029	3
0	9018	2995.724239295819	4
0	9033	3001.110100666066	1
0	9051	3006.420353519502	2
0	9073	3012.268858347093	4
0	9077	3013.328536252031	1
0	9079	3014.336009406607	0
0	9083	3014.765843051604	3
0	9093	3017.768286190699	4
0	9104	3021.981355819973	3
0	9111	3023.299851480411	2
0	9130	3028.882235071161	5
0	9140	3032.233639414546	2
0	9149	3034.344690278876	3
0	9162	3039.804659076851	4
0	9167	3040.298140996141	5
0	9168	3040.368772757246	2
0	9173	3042.058099841123	1
0	9177	3043.756575246697	0
0	9183	3046.107007492339	6
0	9197	3051.898727477766	7
0	9203	3055.276805615992	1
0	9205	3055.548045221485	6