version 3
run General-6-20240428-16:41:48-11295
attr configname General
attr datetime 20240428-16:41:48
attr datetimef 20240428-164148
attr experiment General
attr inifile omnetpp.ini
attr iterationvars $0=true
attr iterationvarsd true
attr iterationvarsf true-
attr measurement $0=true
attr network Supermarket
attr processid 11295
attr repetition 6
attr replication #6
attr resultdir results
attr runnumber 6
attr seedset 6
config network Supermarket
config repeat 10
config seed-set 6
config num-rngs 10
config **.use_random_strategy true

vector 0 Supermarket queueSizeOverTime:vector ETV
attr recordingmode vector
attr source updateQueue
attr title queueSizeOverTime
vector 1 Supermarket customerWaitingTime:vector ETV
attr interpolationmode none
attr recordingmode vector
attr source customerFinished
attr title "cust waiting time"
0	7	5.300873327302	1
0	10	9.231720217504	0
0	14	10.487819139613	1
0	21	16.23624716443	1
0	31	22.13097775518	1
0	46	27.262517826166	1
0	51	28.280054078206	0
0	64	32.40310039511	2
0	75	36.469735790162	0
0	80	37.607352425345	1
0	84	39.064698579139	0
0	93	43.259289732902	3
0	94	43.832388175067	2
0	106	48.690157644684	1
0	120	54.329994009575	2
0	134	59.704900796758	2
0	150	65.55368183041	3
0	154	66.076699478785	1
0	156	66.674736911782	2
0	161	68.49750023847	1
0	169	70.719617673429	2
0	182	76.045200848254	1
0	186	77.252172906885	1
0	203	81.459872854874	2
0	208	83.108498084359	0
0	218	85.700674669004	1
0	224	86.625622143737	1
0	228	87.625561129297	0
0	239	91.573047856918	0
0	244	92.231410875452	3
0	246	93.778566416585	2
0	251	96.442301922128	1
0	257	98.140616933816	1
0	272	103.716777254362	2
0	280	107.047864660853	0
0	289	109.16877719597	2
0	299	114.330895699095	1
0	307	117.945112093003	1
0	316	119.784379452467	1
0	326	122.735497479674	1
0	335	124.805254366715	2
0	356	130.494583157124	3
0	375	135.749448478222	2
0	386	138.895325438121	0
0	397	140.828851946397	3
0	405	143.823686522896	0
0	413	146.084108034149	1
0	414	146.835721512554	2
0	416	146.899866939521	2
0	421	148.313144748913	1
0	433	151.618932464626	2
0	440	153.714873913905	1
0	448	156.740742808787	0
0	453	157.587616040139	1
0	469	163.348695324269	2
0	478	166.68820985686	1
0	488	168.615435369546	3
0	498	171.824319990584	0
0	505	173.852624149993	2
0	510	177.09700385481	2
0	518	179.557923230575	3
0	532	185.440513264387	1
0	537	187.397886118037	1
0	539	187.912431566394	0
0	549	191.046283393632	4
0	551	191.763795629492	3
0	562	196.827775316079	4
0	568	200.856170841607	3
0	573	201.870737496995	4
0	577	202.920273792812	3
0	588	207.254702712874	4
0	592	210.370189444393	0
0	598	213.105681270127	1
0	609	218.219862081575	1
0	626	223.71791241411	1
0	646	228.908753156894	2
0	665	234.037725550355	2
0	667	234.663061927652	3
0	682	238.505027662497	0
0	689	239.296324904309	1
0	691	240.530574703704	1
0	693	240.592298572067	1
0	710	244.662251219153	2
0	725	248.416006655199	0
0	734	250.429137987783	3
0	736	251.218796532716	2
0	742	252.426468334626	0
0	753	256.216391758527	1
0	764	260.607236032722	2
0	770	261.819640242028	3
0	784	267.494291502981	2
0	796	271.195444009964	1
0	805	273.336566382785	4
0	806	274.143413768499	1
0	811	275.456343141383	0
0	820	278.854856488759	1
0	834	284.678197695872	5
0	849	289.885759221621	4
0	853	290.393419664817	5
0	857	290.999836410744	0
0	867	295.812189807415	6
0	878	301.197653803507	1
0	892	307.115792952476	2
0	893	307.184416483736	1
0	898	309.234849486614	5
0	904	311.376356953404	0
0	910	312.198735013835	1
0	915	314.525543532681	0
0	921	317.34325750265	0
0	925	317.691392611477	1
0	939	323.074037548385	2
0	951	328.369453343328	3
0	958	331.552173405067	4
0	966	334.237002898006	5
0	975	339.383839328306	6
0	976	339.41808613762	2
0	987	344.510813790838	7
0	999	350.410563465439	8
0	1005	354.109567894016	7
0	1011	356.358710882951	8
0	1023	361.47564731445	1
0	1034	366.469501866143	0
0	1038	367.202204366911	3
0	1047	372.005886724568	2
0	1052	372.333575757917	9
0	1060	376.430786843878	1
0	1064	377.371929376617	10
0	1071	381.183605302587	9
0	1078	382.718313399933	1
0	1091	387.810303934615	1
0	1111	393.321863948598	10
0	1131	398.334236610911	2
0	1150	403.348464537409	2
0	1151	403.465901507415	0
0	1155	404.066253728116	1
0	1170	409.014598882754	1
0	1171	409.810976749169	0
0	1180	412.259546951969	1
0	1184	413.771963173753	9
0	1190	414.36378336325	10
0	1208	420.03130506491	1
0	1209	420.430023648659	0
0	1211	420.646720635352	9
0	1228	425.997138317206	2
0	1242	431.015085557473	10
0	1258	436.391807398523	1
0	1279	442.199055885427	2
0	1282	442.872310788134	1
0	1287	444.396352020785	9
0	1300	447.457074431932	2
0	1308	449.498286145388	0
0	1316	452.282260915144	1
0	1318	452.5851489437	1
0	1323	453.409663475581	10
0	1340	459.074020822295	0
0	1344	459.35829317127	11
0	1355	465.007292636667	2
0	1356	465.148278790637	10
0	1369	470.262873096156	11
0	1374	473.665206993694	1
0	1380	475.397807952247	1
0	1397	481.018906634531	2
0	1398	481.771864414912	1
0	1414	486.638655977321	2
0	1429	492.627954161723	2
0	1432	493.408953037925	1
0	1448	498.137584700246	1
0	1449	498.193947495187	10
0	1469	503.301089600657	2
0	1492	509.152957053154	2
0	1500	511.314266595172	1
0	1505	512.498150629106	1
0	1511	514.023359622803	1
0	1518	515.115435889687	2
0	1526	516.80800456844	9
0	1537	520.511110579593	2
0	1546	523.320878787894	1
0	1559	526.321225674821	2
0	1569	528.770143779459	1
0	1572	529.570918164092	8
0	1583	532.091073946094	3
0	1587	533.010837902311	2
0	1605	537.137439676326	2
0	1627	542.777010188436	3
0	1638	545.854140795993	7
0	1641	546.093026690182	1
0	1653	548.412431251721	2
0	1657	549.231230895379	0
0	1662	550.923615111031	6
0	1671	553.963899355379	4
0	1686	559.086990382752	5
0	1689	560.041582293343	4
0	1697	562.28211229539	3
0	1707	564.723362385292	1
0	1715	566.636098592655	0
0	1722	569.855203033772	1
0	1727	570.246754940829	2
0	1742	575.959887636357	1
0	1751	578.780449148148	0
0	1754	579.468326244153	1
0	1756	579.515458663802	5
0	1766	581.724087704203	6
0	1776	585.520099357352	0
0	1782	587.039354023288	1
0	1788	589.522810242954	2
0	1800	592.823430869958	1
0	1819	597.957584756889	7
0	1827	600.33973040303	6
0	1839	603.215297916202	7
0	1852	606.581092650882	0
0	1858	608.623678577943	0
0	1862	609.07622747053	1
0	1878	614.877885328136	2
0	1880	615.734747044508	1
0	1884	616.976316450626	1
0	1887	618.013428384432	6
0	1891	619.228559127889	0
0	1897	620.45015361276	1
0	1911	626.021542617814	2
0	1927	631.48770911898	7
0	1929	632.544589872697	6
0	1936	634.838040428229	5
0	1947	637.206188746025	6
0	1950	638.395062737283	0
0	1962	642.875133759105	1
0	1976	647.893482064591	7
0	1980	649.293353025797	0
0	1982	649.829064581187	1
0	1985	650.593178400763	0
0	1990	653.136069893134	1
0	1997	657.45824254152	6
0	2001	658.46723340265	1
0	2002	658.546718727909	0
0	2015	664.265732738651	7
0	2019	665.436820065363	6
0	2028	669.538659139998	7
0	2038	675.498325994234	1
0	2055	681.419104295313	2
0	2069	685.972023279053	0
0	2074	686.603365087645	8
0	2078	688.344102117695	1
0	2087	692.427404270271	1
0	2090	694.057491628564	7
0	2093	694.266150619482	0
0	2103	698.224139529277	8
0	2115	703.402066407722	2
0	2126	708.762178080852	3
0	2134	713.215494286729	7
0	2138	713.878726317777	8
0	2141	715.917326862104	2
0	2150	718.904751941559	9
0	2153	719.979118930286	8
0	2162	723.94227524637	9
0	2173	729.220785351002	1
0	2188	734.364073327274	10
0	2203	739.950043975606	3
0	2219	745.533845828378	11
0	2226	748.932156529741	2
0	2229	749.251277821716	0
0	2237	751.390196228863	3
0	2239	752.810245715893	10
0	2249	757.267205123787	1
0	2265	763.230969591762	1
0	2285	768.782140868248	4
0	2290	770.291010329962	0
0	2294	770.999539812904	9
0	2296	771.577124161646	3
0	2298	771.95141679258	0
0	2306	774.152139954499	1
0	2315	778.322034586684	0
0	2320	779.377392096442	4
0	2331	784.920787586828	10
0	2341	790.351629334965	1
0	2350	793.88246383052	0
0	2357	795.813511833546	1
0	2366	799.208041010775	3
0	2369	800.058016720571	9
0	2374	800.815649385561	4
0	2376	801.631663184731	3
0	2390	806.214263621249	1
0	2391	806.231967766421	2
0	2399	808.73146709543	8
0	2413	811.286062757249	3
0	2432	816.674933805593	2
0	2453	822.472679337949	2
0	2460	823.895372892726	1
0	2466	825.409877263238	0
0	2475	827.745722568591	9
0	2487	832.793070019338	1
0	2492	833.705805517032	2
0	2493	833.972609412276	2
0	2495	834.219519643107	8
0	2507	838.707902071762	1
0	2526	844.497702556427	9
0	2528	844.991531818293	1
0	2533	846.277810384048	8
0	2539	847.866922979354	7
0	2548	849.563436234833	2
0	2560	852.399695064867	6
0	2568	854.577885930537	5
0	2572	855.081336433298	3
0	2575	855.667839206056	1
0	2582	857.743750370456	0
0	2593	860.804093205367	4
0	2602	864.172121939596	3
0	2606	865.118824883129	2
0	2614	866.474048118337	2
0	2617	867.885189696674	4
0	2630	871.856713497543	3
0	2635	874.010865821974	1
0	2647	877.351623184744	4
0	2650	878.936965760535	3
0	2662	882.468756286891	4
0	2677	887.949432948602	1
0	2695	893.28155557811	2
0	2697	893.74988910928	3
0	2708	897.121117983943	0
0	2716	899.197377139234	1
0	2718	899.41794163618	1
0	2730	902.511158826874	2
0	2740	904.586911463176	2
0	2747	906.917896637933	1
0	2754	909.143309561879	3
0	2761	909.978082682702	4
0	2779	915.590782278913	2
0	2800	920.848802403544	5
0	2810	923.799643374859	0
0	2821	926.372516340573	6
0	2822	926.37445567187	1
0	2830	929.038374914667	5
0	2839	931.878642824243	2
0	2840	932.079328853399	1
0	2844	933.67481827782	4
0	2850	935.503883821547	1
0	2858	937.813965197184	1
0	2876	943.081745907894	2
0	2886	946.461078557879	3
0	2899	948.555045349986	3
0	2912	952.643818648413	2
0	2914	952.784623793205	2
0	2923	954.21650139731	2
0	2943	960.01352720521	3
0	2949	961.478361019289	2
0	2961	965.503767798311	1
0	2965	965.741752635917	3
0	2968	966.82281162077	0
0	2986	971.638388089599	1
0	3000	976.204062173137	1
0	3005	976.665647336045	2
0	3024	982.074301003245	2
0	3028	982.244300745424	2
0	3032	983.222527382778	1
0	3051	988.074813696552	2
0	3056	990.184622363077	1
0	3071	993.318621754643	2
0	3082	996.719449806488	1
0	3089	998.04988080146	1
0	3096	999.167795980113	2
0	3106	1001.544181442699	1
0	3110	1002.619359423748	0
0	3118	1004.47111517633	1
0	3127	1007.423728235063	0
0	3138	1010.4585831142	1
0	3143	1012.329757931291	1
0	3154	1015.07570147445	0
0	3156	1015.977178374534	0
0	3160	1016.076555407836	1
0	3167	1017.839928147263	0
0	3177	1021.785458109339	2
0	3189	1026.932106775695	1
0	3195	1029.221775177283	0
0	3203	1032.045114227568	3
0	3210	1035.828562176201	2
0	3214	1037.115174051372	2
0	3226	1042.712262785991	1
0	3240	1048.290141104252	3
0	3255	1053.354356019522	3
0	3270	1058.935700548111	4
0	3273	1059.825863059842	2
0	3289	1064.653846440834	5
0	3293	1065.759451987105	1
0	3298	1067.573472027197	4
0	3302	1069.174279381167	0
0	3307	1069.92136220168	1
0	3323	1075.716387436955	5
0	3339	1081.355528501325	1
0	3350	1085.046001901848	0
0	3356	1086.482033069472	4
0	3360	1086.4878763454	1
0	3379	1092.362983547613	2
0	3399	1097.69909154018	5
0	3408	1101.089800130808	1
0	3415	1102.764250282427	2
0	3424	1105.096349451921	1
0	3436	1107.844100793238	0
0	3441	1108.509068252049	2
0	3445	1109.636424354272	4
0	3448	1110.521339428378	1
0	3461	1114.181274142112	2
0	3471	1117.57616478193	0
0	3479	1119.858282942321	1
0	3493	1125.177166919453	2
0	3509	1130.538277119623	3
0	3515	1130.653071369274	4
0	3522	1133.596651315686	1
0	3532	1136.387536006744	5
0	3546	1141.180824463601	1
0	3551	1141.910666581008	6
0	3563	1146.910451991364	0
0	3568	1147.304392621152	7
0	3574	1151.554938867684	0
0	3579	1152.514951101502	1
0	3580	1152.714751624144	6
0	3591	1157.865529750006	2
0	3594	1158.64893087593	1
0	3604	1163.566336945628	1
0	3619	1168.732071521922	2
0	3623	1170.213563949909	5
0	3636	1174.68530528573	2
0	3642	1177.069234924737	1
0	3648	1178.95654663967	1
0	3653	1179.786422566275	1
0	3654	1180.375065024705	0
0	3656	1180.37940187146	4
0	3674	1185.776749027657	2
0	3682	1189.459098908116	0
0	3689	1191.410525509386	1
0	3692	1192.467547177561	3
0	3707	1197.342905893919	4
0	3712	1198.873157559776	1
0	3716	1199.658869848585	0
0	3724	1202.512557219478	2
0	3736	1208.044415162873	1
0	3751	1213.768699309785	2
0	3756	1215.455711741115	1
0	3767	1219.555525886357	1
0	3774	1221.248594122116	3
0	3776	1221.813824525335	0
0	3788	1224.773830384245	4
0	3805	1230.51810563658	3
0	3816	1234.850893515976	2
0	3823	1236.4042179028	5
0	3838	1242.322270970788	3
0	3842	1243.56476809235	4
0	3856	1248.265312571773	5
0	3860	1249.603264044498	0
0	3865	1251.859405951573	2
0	3871	1253.428959480017	1
0	3889	1259.346292873142	3
0	3896	1262.242672929299	4
0	3898	1262.985352856334	0
0	3905	1265.059085753975	5
0	3907	1266.159970386302	2
0	3918	1270.266849953444	1
0	3933	1275.390529943393	1
0	3937	1276.021306604143	0
0	3948	1279.760760787747	4
0	3955	1281.2807989635	2
0	3968	1286.216817104723	1
0	3972	1286.581122239116	1
0	3992	1291.66278351191	3
0	4010	1297.10262881673	2
0	4014	1297.214726506961	2
0	4025	1300.269843631889	1
0	4034	1302.35538294585	2
0	4037	1303.35389152564	3
0	4056	1308.195618697904	2
0	4068	1311.371300792666	1
0	4079	1313.685574859843	4
0	4101	1319.121956196377	3
0	4112	1323.597444788901	1
0	4115	1323.666623449179	3
0	4118	1324.272826986968	0
0	4122	1324.695774652759	2
0	4132	1328.626726139448	2
0	4139	1329.748064774551	3
0	4146	1332.559546234546	2
0	4153	1334.78689754777	1
0	4157	1334.853550435506	3
0	4172	1340.252027679697	1
0	4185	1343.709009480426	0
0	4195	1345.670001769435	4
0	4203	1348.925152960927	0
0	4210	1351.085889015111	1
0	4219	1354.322222438401	2
0	4221	1354.530107364635	3
0	4229	1356.389062037921	2
0	4244	1361.717738491713	3
0	4260	1366.87670293194	3
0	4264	1368.198164695637	2
0	4266	1368.411950539092	2
0	4273	1371.208574747776	1
0	4278	1372.247367351546	3
0	4280	1372.702176779504	2
0	4282	1373.550081721385	2
0	4295	1377.610463052985	2
0	4303	1380.204913179269	1
0	4308	1381.886236361339	1
0	4312	1383.042399164866	1
0	4316	1383.26752638281	2
0	4324	1386.182617928245	0
0	4332	1388.271465440278	1
0	4345	1393.367341954724	1
0	4366	1398.48667646758	2
0	4374	1401.141016420556	0
0	4379	1402.807993544143	0
0	4382	1403.86298890237	1
0	4384	1404.060912592215	1
0	4388	1404.451488362855	1
0	4399	1408.897195421623	0
0	4405	1409.778096356892	1
0	4411	1413.084455439352	0
0	4420	1415.692111245121	1
0	4434	1421.214584276543	2
0	4450	1426.256767695534	1
0	4467	1430.678029251629	0
0	4472	1432.112129420971	2
0	4480	1434.977265819905	0
0	4488	1437.406339547595	1
0	4497	1441.342031670964	1
0	4504	1442.820329448206	2
0	4511	1446.023961913885	1
0	4519	1448.058556688714	2
0	4520	1448.419338543431	1
0	4537	1453.898097686001	3
0	4554	1459.491752068742	1
0	4561	1462.088682262691	2
0	4568	1464.182499000216	0
0	4574	1465.4138154285	2
0	4590	1470.693324674617	3
0	4606	1475.738733650881	2
0	4622	1481.693567498817	3
0	4623	1481.746251100557	1
0	4629	1482.90484383411	2
0	4635	1485.157796391401	2
0	4643	1487.141060143241	3
0	4657	1492.221145361659	4
0	4673	1498.087229673981	5
0	4687	1502.423494021875	1
0	4692	1504.037722841368	2
0	4710	1509.57351883454	6
0	4713	1510.395262330537	5
0	4721	1513.520617451168	1
0	4729	1514.835919999282	6
0	4733	1517.197477300304	0
0	4741	1520.072655395835	7
0	4755	1525.9752102592	2
0	4768	1531.303133228558	8
0	4769	1531.664529905769	1
0	4772	1532.674814855562	7
0	4783	1536.857667887348	2
0	4793	1542.571500107876	1
0	4808	1547.579766975014	2
0	4811	1548.242466960333	6
0	4814	1549.502990709617	1
0	4816	1549.668723698936	5
0	4827	1552.87853593053	3
0	4834	1554.856830406582	4
0	4844	1558.321863659655	4
0	4847	1559.012865358031	0
0	4858	1563.66008737101	5
0	4860	1565.203250203511	4
0	4868	1569.473156746475	1
0	4885	1575.452470505841	2
0	4890	1577.582443356046	3
0	4897	1580.517520750519	3
0	4902	1580.98748727422	1
0	4915	1585.26872632466	1
0	4924	1586.336008559678	2
0	4944	1591.837903240228	4
0	4964	1597.750566143308	2
0	4984	1603.277872623176	4
0	4986	1604.032776035947	3
0	4995	1606.597080765524	3
0	5005	1608.334062716457	3
0	5007	1609.253902927856	1
0	5009	1609.798046767245	2
0	5028	1613.962949599138	4
0	5039	1617.025662199594	0
0	5049	1619.397446907124	3
0	5063	1624.558216969714	4
0	5064	1624.814776242592	3
0	5073	1627.213341268594	2
0	5077	1628.625516449448	3
0	5084	1630.262417504562	3
0	5101	1635.424018152988	4
0	5114	1640.230441809744	2
0	5119	1641.167969985864	4
0	5134	1646.265791892771	1
0	5153	1651.672114067244	5
0	5155	1651.980634448116	4
0	5160	1652.934733077301	0
0	5166	1654.94791840471	3
0	5173	1657.014774789101	5
0	5179	1659.676044303456	4
0	5189	1662.13746513985	3
0	5192	1663.327990714107	2
0	5196	1664.289171971842	1
0	5207	1667.461095556616	4
0	5214	1670.944942016617	0
0	5218	1671.823875162515	3
0	5224	1673.346040666335	1
0	5243	1678.888242063111	4
0	5245	1680.316644454024	3
0	5256	1684.311316763284	3
0	5260	1684.831457323393	4
0	5274	1690.516229253726	2
0	5288	1695.624576811095	1
0	5292	1696.290960648561	4
0	5300	1699.596692277352	3
0	5308	1701.354089692932	5
0	5310	1702.03730541386	4
0	5316	1703.7864026546	3
0	5327	1706.992982432012	2
0	5343	1712.75472555356	4
0	5347	1714.153069501045	3
0	5350	1715.103831977465	1
0	5352	1715.191270320444	2
0	5362	1718.043255251598	3
0	5365	1718.715351771214	2
0	5380	1723.676336011264	2
0	5386	1723.935483360894	3
0	5401	1729.416793363633	3
0	5409	1732.719094940228	0
0	5417	1735.213258874834	1
0	5432	1740.893396126803	4
0	5436	1742.724898085927	2
0	5449	1746.402328939175	1
0	5453	1747.811690709319	3
0	5463	1750.897735719568	0
0	5468	1751.572985704986	1
0	5489	1757.328994406851	2
0	5504	1761.587277362472	0
0	5512	1762.991631083189	4
0	5528	1768.137340149608	3
0	5531	1768.608503647379	1
0	5538	1771.442880748305	2
0	5547	1774.01635214011	3
0	5548	1775.083260854122	3
0	5563	1779.191800910745	1
0	5581	1784.53867758042	2
0	5592	1787.751279532908	0
0	5601	1790.285346289164	1
0	5610	1792.980862855445	2
0	5612	1793.665815015787	2
0	5623	1795.924126835539	3
0	5626	1796.675380839964	0
0	5635	1799.593784030177	1
0	5643	1801.183260319986	3
0	5644	1801.532670685322	0
0	5657	1806.717569244093	4
0	5665	1811.945159682886	2
0	5669	1812.612859189043	5
0	5675	1817.341770711236	1
0	5679	1817.743068894603	1
0	5692	1823.104561342158	1
0	5703	1826.209456429818	4
0	5717	1828.804034968371	5
0	5733	1834.34162450302	0
0	5737	1834.390230968593	2
0	5738	1834.402331118357	4
0	5742	1836.235969486531	0
0	5744	1836.686393592971	1
0	5749	1839.907041497763	3
0	5754	1840.150492117506	1
0	5768	1845.56284908275	2
0	5784	1851.338544762925	2
0	5790	1853.026926391757	1
0	5792	1853.396302278735	1
0	5802	1856.47820719215	2
0	5811	1860.360222781891	0
0	5816	1861.655568437303	2
0	5820	1862.04069264722	3
0	5832	1867.264715669443	1
0	5839	1869.407329336855	1
0	5842	1870.191926540573	0
0	5846	1871.828848368138	0
0	5851	1872.272107752971	1
0	5861	1877.60873437417	2
0	5865	1877.810751003213	3
0	5878	1883.461896948982	2
0	5887	1888.464771772036	4
0	5897	1894.301902847132	1
0	5901	1894.447765631368	5
0	5905	1896.689260096755	0
0	5909	1898.559751995959	4
0	5914	1899.665620399406	1
0	5918	1903.024341306653	3
0	5924	1904.692917408189	2
0	5935	1909.836260590702	4
0	5946	1914.952569189947	1
0	5961	1919.954117518151	1
0	5968	1921.872695051603	3
0	5977	1924.691710791203	1
0	5984	1925.752830697456	2
0	5988	1926.893050278424	2
0	6004	1930.908314490923	2
0	6026	1936.551191299222	2
0	6032	1938.196834910548	1
0	6047	1941.662844031816	3
0	6057	1944.997957332758	1
0	6067	1947.07708550035	3
0	6069	1947.575819395718	2
0	6080	1950.936272473191	2
0	6092	1952.927179378224	3
0	6100	1955.053874189149	0
0	6103	1955.797468307431	1
0	6115	1958.57933590142	4
0	6121	1960.716323387576	3
0	6128	1963.365722471386	0
0	6133	1963.750825366005	1
0	6147	1968.134591276994	0
0	6152	1969.506610744865	4
0	6163	1975.067568051628	5
0	6180	1980.989392264745	1
0	6181	1981.44094467163	0
0	6190	1986.136048226848	4
0	6195	1986.313232146435	2
0	6207	1991.869341134558	1
0	6218	1995.988704041111	3
0	6223	1997.049158911918	1
0	6241	2002.008080769794	0
0	6247	2002.570783697999	2
0	6255	2005.880897345255	1
0	6264	2008.398280848282	3
0	6279	2014.054060227469	2
0	6291	2018.298124106481	2
0	6298	2019.58677867893	1
0	6299	2020.209614982359	1
0	6314	2024.331079163123	0
0	6319	2024.703913141506	1
0	6323	2026.178670786322	2
0	6338	2030.461013118036	3
0	6339	2030.587827687266	0
0	6352	2035.769217452848	1
0	6356	2035.803904848171	2
0	6372	2041.164859728885	4
0	6383	2045.807920514024	3
0	6388	2047.138856450559	4
0	6398	2050.218289981009	0
0	6405	2052.822923006487	3
0	6412	2056.128364798961	2
0	6418	2058.707277165257	5
0	6429	2063.919570401773	3
0	6435	2068.766066223382	4
0	6440	2069.145618371662	5
0	6443	2070.218411155276	2
0	6455	2075.122584544817	6
0	6466	2080.590420092452	1
0	6473	2083.622333958978	5
0	6481	2086.261389341667	2
0	6497	2091.882423762927	6
0	6499	2092.528899298861	1
0	6503	2093.653977953011	0
0	6510	2096.825113198366	1
0	6514	2096.946587445211	7
0	6528	2102.823181418931	1
0	6532	2104.074340131129	0
0	6534	2104.251201457227	6
0	6543	2108.800141422074	7
0	6555	2113.911157382182	8
0	6570	2119.827163807345	1
0	6571	2120.027385658114	0
0	6576	2122.567028999094	7
0	6582	2125.196506878124	1
0	6590	2128.181794034664	6
0	6599	2130.577946355562	7
0	6605	2132.798383553859	6
0	6615	2135.920001946152	7
0	6618	2137.107608173037	0
0	6630	2141.481542568183	8
0	6639	2146.577209899432	0
0	6644	2147.161708257854	1
0	6653	2152.31453958549	2
0	6656	2153.483524050793	7
0	6667	2157.87760366592	1
0	6682	2163.335561309004	2
0	6700	2168.813580883428	3
0	6703	2169.988139342976	2
0	6714	2173.551846783369	1
0	6718	2173.895794187899	1
0	6726	2176.495789173519	1
0	6729	2177.203516998207	6
0	6733	2178.232948585291	0
0	6739	2179.175228718196	1
0	6742	2180.09989992191	5
0	6757	2184.684716517798	2
0	6762	2185.651354905212	4
0	6770	2188.319223459571	1
0	6776	2189.633393019666	0
0	6781	2190.077980910422	5
0	6798	2196.031917958514	1
0	6805	2198.356458924122	0
0	6816	2201.36518667009	2
0	6827	2206.410588368185	1
0	6834	2207.199478499352	1
0	6840	2209.006753009505	0
0	6846	2211.139653552551	4
0	6855	2213.195956413395	2
0	6864	2218.019166418693	0
0	6870	2219.13179843779	1
0	6881	2223.644098731217	1
0	6886	2225.070365452434	1
0	6887	2225.102951368078	0
0	6891	2226.356071270882	3
0	6904	2230.519111608614	2
0	6920	2236.155043047148	1
0	6938	2241.311054940329	2
0	6953	2246.208779191591	0
0	6958	2246.812266737216	3
0	6966	2250.171539908036	2
0	6971	2251.829461146494	2
0	6976	2252.624073747539	3
0	6981	2254.542964958227	1
0	6990	2257.66586524294	2
0	6994	2257.77199608669	2
0	7010	2262.900545929087	3
0	7027	2268.327834090678	1
0	7044	2273.867981839569	1
0	7046	2274.095636906569	2
0	7051	2274.3003858393	2
0	7055	2275.559056477739	1
0	7059	2276.460597161778	0
0	7071	2279.714303054143	3
0	7073	2280.797343484468	1
0	7082	2284.158354217996	2
0	7089	2285.172036840575	1
0	7112	2290.732807911694	3
0	7122	2294.129492825008	0
0	7126	2295.546515897851	0
0	7132	2296.595513682574	1
0	7136	2298.423780226959	2
0	7148	2301.918698741117	2
0	7155	2304.972224858697	0
0	7164	2307.714645131485	3
0	7171	2311.475894819825	2
0	7178	2313.122558026103	3
0	7184	2316.100795361674	1
0	7192	2318.66710281418	1
0	7197	2321.53331093315	0
0	7201	2322.410334937854	2
0	7206	2323.830270926927	2
0	7215	2328.445685934971	1
0	7219	2329.257687691825	1
0	7235	2334.528104807942	3
0	7242	2336.792081935441	0
0	7251	2340.266549346263	1
0	7254	2341.4971108908	2
0	7259	2343.142074958764	1
0	7263	2344.348348951082	0
0	7269	2345.85722310398	2
0	7280	2351.308377114583	1
0	7291	2355.180966286913	1
0	7298	2356.629434282186	2
0	7300	2356.839256021769	1
0	7309	2361.05474397714	0
0	7314	2361.935658718918	1
0	7329	2367.529097169631	2
0	7334	2369.509114680454	1
0	7347	2372.727997738628	1
0	7365	2377.98578054853	2
0	7370	2379.47976240189	1
0	7375	2380.758242599077	0
0	7387	2383.970215075409	2
0	7388	2384.069212078575	1
0	7399	2388.528865517343	0
0	7404	2389.031954950878	2
0	7408	2392.056695344035	0
0	7411	2392.748517212569	1
0	7417	2394.987533179104	1
0	7428	2400.690314511528	1
0	7443	2406.528796648133	1
0	7463	2412.281266339348	2
0	7486	2418.024969802928	2
0	7495	2421.085477623384	0
0	7503	2423.033187592161	2
0	7508	2424.714439225492	1
0	7516	2427.378487890459	1
0	7524	2428.702155169557	2
0	7535	2433.599629793889	1
0	7539	2433.820384294485	1
0	7556	2439.253621784264	2
0	7560	2440.404036763346	1
0	7569	2442.721522422966	0
0	7578	2445.043442471644	2
0	7594	2450.606776283814	3
0	7609	2455.646242817158	3
0	7610	2456.512571749385	2
0	7615	2458.279200361215	2
0	7626	2461.229811006684	3
0	7629	2462.760890041699	2
0	7634	2464.491132173677	0
0	7643	2466.793131766834	1
0	7658	2471.817036096931	3
0	7675	2477.418059921351	3
0	7683	2480.979431041737	2
0	7685	2481.506175287176	2
0	7691	2482.685789375094	1
0	7701	2485.870023742195	0
0	7703	2486.207109512633	1
0	7711	2487.699195299058	1
0	7714	2489.307694211479	0
0	7718	2490.534162273503	0
0	7723	2492.572177414892	0
0	7727	2492.710918945952	3
0	7734	2497.877561313326	1
0	7742	2503.162100679118	0
0	7746	2503.2760947477	1
0	7757	2509.029129696537	4
0	7769	2514.972454769297	2
0	7770	2515.16639474045	3
0	7783	2520.682619806838	1
0	7787	2522.001058009444	2
0	7801	2526.530273297795	3
0	7808	2529.098300117641	2
0	7814	2531.231816582725	0
0	7821	2532.11916395346	1
0	7837	2537.636013547185	1
0	7842	2539.463064727597	1
0	7849	2541.622653485383	0
0	7857	2543.373717596282	2
0	7860	2544.340483600847	1
0	7873	2549.227122297969	3
0	7875	2550.065783476449	2
0	7878	2550.385309853236	0
0	7889	2554.495768616434	1
0	7903	2559.52168728131	2
0	7918	2564.657949446925	1
0	7936	2570.262952096286	3
0	7943	2572.571684190063	0
0	7953	2575.338675741098	4
0	7968	2580.957675725213	2
0	7974	2583.293635114553	1
0	7976	2583.312104518864	3
0	7988	2586.831102466668	2
0	8005	2592.476427183944	3
0	8006	2592.744878774733	1
0	8020	2597.412332942468	0
0	8024	2598.322747392572	1
0	8028	2599.920606042832	0
0	8039	2603.510489099884	1
0	8043	2605.294725785836	2
0	8055	2609.444403049063	2
0	8066	2613.801396673303	2
0	8071	2614.602496524567	3
0	8087	2619.842432448633	4
0	8089	2620.662919401761	3
0	8099	2624.373843648808	2
0	8105	2625.619195583967	3
0	8106	2625.76320195977	1
0	8112	2627.788775097338	1
0	8122	2631.208769933313	2
0	8127	2632.837824449284	1
0	8133	2635.073976380272	2
0	8140	2636.958345493294	1
0	8153	2641.166196510882	1
0	8163	2642.634591144269	2
0	8182	2648.273424792096	3
0	8186	2649.390803097621	0
0	8200	2654.272689701051	2
0	8210	2658.572913185103	1
0	8217	2659.547435735345	1
0	8236	2664.747391684905	2
0	8246	2667.930176883926	0
0	8256	2670.741550297236	2
0	8262	2672.815667656003	2
0	8264	2673.373153178831	1
0	8269	2675.549319221979	1
0	8274	2675.881812720785	2
0	8293	2681.710004808141	3
0	8305	2686.779152990536	1
0	8309	2687.080743343562	2
0	8324	2692.155219547443	4
0	8338	2697.501512697999	1
0	8342	2698.131125805193	5
0	8344	2698.774168530357	4
0	8351	2700.504970885571	0
0	8360	2703.376609175225	1
0	8374	2708.405713734907	5
0	8380	2711.788590864728	0
0	8387	2713.565292235688	2
0	8398	2718.839233444529	1
0	8413	2724.685321856281	6
0	8419	2726.905996653128	5
0	8423	2728.463756826816	1
0	8431	2729.984909687648	6
0	8434	2731.161559577908	0
0	8445	2735.677257727357	7
0	8449	2738.278997504492	0
0	8455	2740.925168419248	1
0	8466	2746.791831729692	1
0	8483	2752.349330010582	2
0	8487	2753.453060815802	6
0	8490	2754.610197011024	0
0	8499	2757.824856159268	1
0	8509	2762.007160495494	1
0	8514	2763.265320679862	1
0	8520	2765.088069362907	0
0	8532	2768.949646630082	2
0	8537	2771.287095247759	1
0	8540	2771.950501146135	0
0	8548	2774.610019324803	1
0	8563	2780.070996815794	7
0	8570	2783.023362614323	0
0	8572	2783.237972077556	6
0	8578	2785.415905072111	1
0	8588	2789.993462262314	0
0	8594	2791.055005033723	7
0	8595	2791.198257773291	6
0	8608	2796.984416154669	7
0	8613	2799.80592827684	0
0	8618	2802.161304378174	8
0	8627	2807.23799821035	1
0	8638	2812.387474046312	2
0	8642	2814.578723960898	7
0	8651	2818.152035295721	3
0	8652	2818.476501444462	2
0	8661	2822.651456678393	1
0	8666	2823.709242658447	1
0	8683	2829.558478737706	1
0	8703	2835.144386542719	8
0	8724	2840.766893412443	2
0	8743	2846.473179138723	7
0	8747	2846.513581034718	3
0	8750	2848.003744791602	0
0	8754	2848.667868873327	2
0	8758	2849.960114506646	0
0	8765	2851.595115455324	3
0	8776	2856.681859763796	8
0	8788	2861.79213909641	4
0	8792	2863.913160608722	3
0	8800	2867.340421411433	1
0	8809	2872.010340747414	7
0	8817	2872.92365479352	2
0	8831	2878.153371099839	1
0	8842	2880.824986928482	2
0	8846	2881.593687901032	6
0	8851	2883.157073141764	1
0	8858	2883.462453701058	2
0	8868	2886.679453312759	0
0	8877	2888.568431767393	3
0	8886	2891.827527870182	1
0	8894	2893.893688465925	2
0	8903	2897.490629727942	2
0	8911	2899.849909897884	3
0	8927	2905.00509984022	3
0	8939	2909.961415273127	5
0	8941	2910.172341356045	2
0	8945	2910.670685231443	3
0	8964	2916.355296135172	4
0	8973	2921.060921177957	3
0	8978	2921.768562085218	4
0	8982	2922.658356438731	3
0	8995	2926.960276402989	4
0	9012	2932.13265226175	4
0	9022	2936.248703459733	4
0	9028	2937.816118207284	5
0	9044	2942.89743459992	6
0	9061	2948.221547506506	1
0	9063	2949.730344551956	3
0	9065	2949.96993644197	5
0	9068	2950.438191435639	3
0	9077	2952.767325166836	4
0	9084	2954.120385490813	4
0	9090	2956.001713894764	3
0	9095	2957.523894152013	2
0	9101	2959.310968319643	0
0	9105	2959.340522846196	1
0	9116	2962.678893040855	2
0	9125	2964.709582445666	3
0	9130	2965.738022142196	0
0	9145	2970.286130028533	4
0	9158	2975.815704348136	1
0	9162	2976.200785451558	5
0	9164	2977.043448371221	3
0	9178	2982.028421197076	4
0	9186	2984.43403622705	4
0	9197	2987.611315047823	5
0	9213	2993.550852311764	6
0	9215	2993.711583227025	3
0	9225	2997.249481706522	5
0	9232	2998.653253931075	4
0	9251	3004.477885396907	2
0	9257	3006.458871041181	1
0	9267	3009.784504809173	1
0	9288	3015.465770536557	2
0	9292	3017.016635321423	4
0	9294	3017.029067424814	1
0	9302	3018.587227267318	3
0	9312	3021.386722984946	4
0	9334	3027.08276432868	2
0	9336	3027.651222383011	1
0	9346	3030.323448849484	3
0	9351	3031.715437270687	0
0	9356	3032.364155341861	2
0	9359	3033.23280511458	2
0	9367	3036.359297447827	1
0	9370	3037.312203564207	1
0	9374	3037.930651485444	3
0	9378	3038.285304430164	4
0	9393	3043.555371650485	1
0	9417	3049.368598883031	2
0	9422	3051.008164845279	0