version 3
run General-16-20240428-16:41:48-11318
attr configname General
attr datetime 20240428-16:41:48
attr datetimef 20240428-164148
attr experiment General
attr inifile omnetpp.ini
attr iterationvars $0=false
attr iterationvarsd false
attr iterationvarsf false-
attr measurement $0=false
attr network Supermarket
attr processid 11318
attr repetition 6
attr replication #6
attr resultdir results
attr runnumber 16
attr seedset 6
config network Supermarket
config repeat 10
config seed-set 6
config num-rngs 10
config **.use_random_strategy false

vector 0 Supermarket queueSizeOverTime:vector ETV
attr recordingmode vector
attr source updateQueue
attr title queueSizeOverTime
vector 1 Supermarket customerWaitingTime:vector ETV
attr interpolationmode none
attr recordingmode vector
attr source customerFinished
attr title "cust waiting time"
0	7	5.300873327302	1
0	10	9.325864078245	0
0	14	10.487819139613	1
0	21	16.228892299347	1
0	32	21.933274252341	1
0	37	23.765396480099	0
0	40	24.908297102084	0
0	44	26.54249491857	0
0	48	27.925733481069	1
0	54	33.257118431852	1
0	64	38.670782973292	1
0	82	44.630168864737	1
0	84	44.860416568352	0
0	97	49.641754407902	1
0	112	54.43938388105	0
0	117	55.501318369294	1
0	137	60.815626318567	2
0	145	63.390297966312	0
0	155	66.784910403193	1
0	171	71.842560811317	0
0	176	72.048192429823	1
0	180	73.474293755017	1
0	196	77.851056042594	2
0	218	83.593473532937	2
0	222	84.980433046234	1
0	235	88.004165981784	0
0	243	89.307191990317	1
0	245	90.202855847078	0
0	259	94.53154459037	1
0	279	100.440750648734	2
0	280	100.601976174047	0
0	283	101.627945325919	1
0	296	106.10186388623	1
0	297	106.179829496194	0
0	310	109.942159701951	1
0	316	111.210511518177	1
0	322	113.677650023714	0
0	331	116.600327646126	0
0	335	116.766120369081	1
0	337	117.432228205142	0
0	342	120.056530917763	0
0	348	121.89324753359	1
0	355	125.843167196843	0
0	360	127.152418453712	1
0	369	132.281674331287	1
0	385	137.474129733862	1
0	402	142.931710270932	2
0	406	143.332835212349	0
0	408	144.012020108522	0
0	419	148.011113739107	1
0	424	149.663755676593	0
0	430	151.809331243742	1
0	436	153.114613829879	1
0	451	158.317898587324	1
0	453	158.617928980385	0
0	458	159.812079087132	0
0	461	161.1894567291	0
0	467	163.697624335997	1
0	479	169.66630791151	1
0	489	172.979778290378	0
0	497	175.569031663938	1
0	511	180.703066986055	1
0	520	183.10580346547	0
0	534	185.743118589279	1
0	535	186.018735875956	0
0	538	186.633202875266	0
0	540	186.89586287702	0
0	546	191.091942513362	1
0	558	196.481156506343	1
0	565	199.178991247783	0
0	573	201.498607889516	1
0	574	202.424734201749	0
0	586	207.104378018761	1
0	600	212.256042856025	1
0	622	217.783309385882	0
0	627	218.132788662566	1
0	642	223.635793595342	0
0	648	223.983767219819	1
0	660	227.249359457869	0
0	668	229.125166832469	1
0	688	234.771340253995	2
0	692	235.499814053763	0
0	702	239.058794324984	1
0	708	239.970539491623	1
0	728	244.974693250609	2
0	735	246.655432535568	0
0	743	249.309622144792	0
0	748	250.045768471667	1
0	753	251.905975739472	0
0	761	255.188647557282	1
0	777	260.300513927358	1
0	787	262.971152043785	1
0	790	263.451695111348	0
0	802	266.278536048251	1
0	822	271.881753068649	2
0	825	272.786680233781	0
0	841	277.689883161801	1
0	858	282.414963428396	0
0	864	283.317372887394	1
0	870	285.155498315464	1
0	880	288.252970303291	0
0	885	288.980849926591	1
0	898	293.216959982761	0
0	900	293.340927585958	0
0	906	294.262559731955	1
0	911	296.456860075237	0
0	919	299.613827126099	1
0	931	304.616636178803	0
0	937	305.50027707056	1
0	946	310.01718465681	0
0	948	310.447960284306	0
0	952	311.418416219529	1
0	959	314.729233193676	0
0	963	316.658383380154	1
0	972	321.083952107698	0
0	977	322.401774342868	1
0	980	324.097703864562	0
0	987	327.76938817906	1
0	1001	333.152033115968	1
0	1006	335.209494062116	0
0	1016	338.244061500531	1
0	1032	343.93948225118	0
0	1036	344.111611055209	1
0	1042	347.23171258089	0
0	1044	347.732678643425	0
0	1049	349.609159888233	1
0	1062	355.459800903684	1
0	1074	360.48008349724	1
0	1075	360.671591683874	0
0	1091	365.853976724668	1
0	1102	369.872784036676	0
0	1108	370.882152065168	1
0	1119	373.952803486374	0
0	1129	376.340375310042	1
0	1140	379.832687118321	0
0	1149	381.417083807987	1
0	1152	382.56124500127	0
0	1165	386.834030287805	1
0	1178	390.757344477344	0
0	1187	392.509498281636	1
0	1207	398.140340231124	0
0	1212	398.473552951122	1
0	1214	398.513781653832	0
0	1230	403.48778087762	1
0	1236	405.425902266171	0
0	1241	407.373537771753	0
0	1248	409.485987891441	1
0	1263	414.628445439504	1
0	1265	414.807896734563	0
0	1283	420.448570873353	1
0	1300	425.516021316403	2
0	1307	426.863078918656	0
0	1312	428.580228346516	0
0	1320	431.082163337849	1
0	1331	435.858926613928	0
0	1337	436.84106196719	1
0	1348	442.078568644126	1
0	1353	442.645441035039	1
0	1361	445.175108424851	0
0	1373	447.941096421329	1
0	1376	449.098029494398	0
0	1390	453.613752776988	1
0	1406	457.925773103143	0
0	1408	458.082029798181	0
0	1414	459.483370971399	1
0	1421	462.77272880927	0
0	1431	464.986808618297	1
0	1437	467.839018007272	0
0	1446	470.910888377809	1
0	1449	472.336303315707	0
0	1460	476.251258879666	1
0	1462	476.82665634842	0
0	1473	481.815948810427	1
0	1490	487.437047492711	1
0	1492	488.261589284753	0
0	1508	493.117265226318	1
0	1516	495.724226147516	0
0	1525	498.215509189757	1
0	1532	500.73776541918	0
0	1537	501.552440647618	0
0	1545	503.703881877007	1
0	1560	509.283378255552	1
0	1565	510.691886876823	0
0	1567	510.78657991695	0
0	1575	514.361403983085	1
0	1593	520.125759598332	1
0	1602	522.754067241445	0
0	1613	526.088238434865	1
0	1616	526.39245605166	0
0	1632	531.276628353166	1
0	1640	534.315992071873	0
0	1650	537.130837489849	1
0	1665	541.671342821442	0
0	1671	542.426988587946	1
0	1676	544.022991644218	0
0	1682	546.162853572749	0
0	1690	547.983360869343	1
0	1701	552.051358106194	0
0	1703	552.501065160263	0
0	1708	553.218767407349	1
0	1710	554.909302550017	0
0	1717	558.699287366121	1
0	1729	564.155224402434	1
0	1744	569.169428167398	1
0	1745	569.176910906214	0
0	1752	571.288442473626	0
0	1762	574.684359880629	1
0	1777	579.925959414103	1
0	1798	585.57567939069	2
0	1801	586.671728420186	0
0	1815	590.584000764181	1
0	1818	591.237540999427	0
0	1825	593.018576327827	0
0	1832	596.107393319718	1
0	1839	599.219438714091	1
0	1842	600.035691645461	0
0	1847	601.364391831215	1
0	1855	605.185634811524	0
0	1861	606.508787591243	1
0	1862	606.510281517752	0
0	1873	611.565559229115	1
0	1876	612.426175625877	0
0	1883	615.792954782373	0
0	1887	616.950232618023	1
0	1899	622.540800186573	1
0	1914	627.74853402772	1
0	1922	630.309544149087	0
0	1928	632.068576143938	0
0	1933	632.882687914651	1
0	1939	635.747283274541	0
0	1945	638.746226028189	0
0	1949	638.835217849584	1
0	1952	640.815340167611	0
0	1959	644.342791454401	1
0	1971	650.161840261659	1
0	1976	651.844626767444	0
0	1984	655.220050109085	1
0	2000	661.128785386915	1
0	2002	662.009414445025	0
0	2010	664.77042171231	0
0	2017	666.701053671539	1
0	2025	669.980324819336	0
0	2028	671.052981228335	0
0	2032	672.488513080171	1
0	2043	678.352238970344	1
0	2050	681.040987766114	0
0	2058	683.944715129678	1
0	2060	684.347914664658	0
0	2072	689.200522317319	1
0	2089	694.537488613744	1
0	2090	694.713004511082	0
0	2097	697.223194092979	0
0	2103	699.543934231858	1
0	2108	701.272628832726	0
0	2120	705.295539221029	1
0	2129	709.196044551443	0
0	2135	711.007183396259	1
0	2141	713.092267647853	0
0	2148	716.030206713594	1
0	2159	720.857290774584	0
0	2164	721.400637796849	1
0	2172	725.578487269232	0
0	2179	727.20139501081	1
0	2193	732.521418484395	0
0	2197	732.640534101288	1
0	2199	733.471916462879	0
0	2201	733.773598564556	0
0	2209	738.63896355196	1
0	2221	743.921358086635	1
0	2222	743.929309505856	0
0	2234	749.648582834052	1
0	2242	752.60732324596	0
0	2247	754.660026474508	0
0	2252	755.1098191028	1
0	2262	760.477837841027	1
0	2278	765.792872855207	1
0	2285	768.089023529903	0
0	2289	768.895122067655	0
0	2298	771.677505979314	1
0	2312	776.734488929156	1
0	2328	781.561503631179	0
0	2332	781.879729263484	1
0	2333	782.454073635861	0
0	2347	787.239280688576	1
0	2360	790.780637826422	0
0	2370	793.154564715921	1
0	2376	796.003752840799	0
0	2388	799.010915116406	1
0	2389	799.262413794174	0
0	2404	804.473136797314	1
0	2414	807.730661933544	0
0	2419	810.041519335238	0
0	2423	810.061928225914	1
0	2438	815.05975756154	0
0	2442	815.856915024575	1
0	2444	816.573140255641	0
0	2448	817.799745252123	0
0	2454	821.457979603438	1
0	2459	824.889380730105	0
0	2464	826.971770255361	1
0	2475	832.405792123638	1
0	2490	837.949187614024	1
0	2504	842.742100439849	0
0	2509	843.251880543074	1
0	2519	846.688259630581	0
0	2528	848.460771688028	1
0	2538	851.693603377673	0
0	2548	854.217462237925	1
0	2556	856.525295658386	0
0	2569	860.159305439098	1
0	2580	863.589640123302	0
0	2582	863.829735210746	0
0	2588	865.173908251571	1
0	2597	868.626396945911	0
0	2604	870.998543282273	1
0	2608	872.512290271815	0
0	2610	872.943495470099	0
0	2616	876.459935605061	1
0	2630	881.807951410767	1
0	2641	886.103538185477	0
0	2645	887.347353550024	0
0	2649	887.511137256865	1
0	2661	893.471220205306	1
0	2676	899.381860133494	1
0	2694	904.723888894777	2
0	2702	907.275198022021	0
0	2714	910.457207137953	1
0	2717	911.756811126021	1
0	2720	912.162036886906	0
0	2724	912.669775762131	0
0	2733	915.929278973259	1
0	2734	916.020711389138	0
0	2741	918.85371595342	0
0	2747	921.685970514549	1
0	2758	927.533807889095	1
0	2767	930.567703930778	0
0	2775	933.199236358518	1
0	2792	938.750031052392	1
0	2804	942.605700464688	0
0	2812	944.59036663105	1
0	2818	946.89167091239	0
0	2824	949.027187329021	0
0	2829	950.218471837465	1
0	2845	955.842886207395	1
0	2852	958.413994865378	0
0	2864	961.365990255496	1
0	2880	966.934594778346	2
0	2894	971.275883170194	0
0	2896	971.735573392714	0
0	2899	971.967398078768	1
0	2903	972.540403846886	1
0	2921	978.532066637419	1
0	2940	983.923237856945	2
0	2959	989.535937453156	2
0	2977	994.793957577787	2
0	2986	997.381579881072	1
0	2989	997.82748612343	1
0	3001	1000.031012622408	2
0	3002	1000.338235232047	1
0	3013	1003.102961857225	0
0	3019	1005.006609963376	1
0	3024	1005.855368441205	1
0	3030	1008.078781844119	0
0	3043	1011.790690814146	1
0	3060	1017.102968094406	2
0	3076	1021.757682288654	1
0	3084	1022.576267536498	2
0	3098	1027.210459035936	0
0	3105	1028.237723583822	1
0	3123	1033.394316137303	2
0	3138	1038.247766714429	0
0	3144	1038.993189485045	1
0	3146	1039.295925864601	1
0	3148	1039.920575822237	0
0	3162	1044.368816735456	1
0	3178	1048.620020139385	1
0	3183	1049.577973025153	2
0	3185	1050.078934651688	1
0	3202	1054.892135385192	2
0	3224	1060.31834337744	2
0	3233	1062.824377221172	0
0	3243	1065.953842648771	1
0	3254	1068.839331868339	1
0	3264	1071.252064110944	2
0	3270	1073.055385018471	1
0	3278	1074.739477257246	0
0	3285	1076.716550134822	1
0	3290	1077.101238336414	1
0	3295	1078.720674883574	0
0	3311	1082.831723638112	1
0	3315	1083.99290509417	0
0	3328	1088.291420105612	1
0	3338	1091.725654164684	0
0	3344	1093.255209273892	0
0	3350	1094.044869001489	1
0	3366	1099.614609746728	1
0	3389	1105.18163645314	2
0	3392	1106.099856981658	1
0	3400	1107.778455254622	0
0	3406	1109.61510068993	0
0	3411	1110.46405760385	1
0	3417	1113.109584904856	0
0	3425	1116.125111924716	1
0	3426	1116.206532271578	0
0	3428	1116.406744914596	0
0	3433	1120.735042618237	0
0	3437	1121.802700385217	1
0	3443	1127.014853223924	1
0	3454	1132.94031577627	1
0	3469	1138.156780234769	1
0	3491	1144.100565446772	2
0	3497	1145.635118237579	0
0	3499	1146.035861479232	0
0	3509	1149.753768458495	1
0	3522	1155.389378825666	1
0	3524	1155.744143863787	1
0	3543	1160.589244125874	2
0	3560	1165.357954429461	0
0	3565	1166.043683921916	1
0	3576	1169.419232781974	0
0	3586	1171.738467291461	1
0	3608	1177.714922610203	2
0	3615	1180.512933705349	1
0	3621	1181.99679576524	1
0	3628	1183.391820226329	2
0	3650	1189.246975331799	2
0	3666	1194.126917367916	0
0	3671	1194.430792074649	1
0	3691	1199.680548577801	2
0	3704	1203.762617995261	0
0	3709	1205.063078246078	1
0	3715	1206.66130965424	1
0	3726	1209.278912202571	1
0	3733	1210.153860945719	2
0	3744	1213.527039124861	1
0	3753	1215.587881169862	0
0	3757	1215.674871005349	1
0	3759	1216.776713308526	1
0	3777	1220.816358704118	2
0	3795	1226.193027896572	2
0	3802	1227.816979982423	0
0	3807	1228.979557241777	0
0	3810	1230.415292845805	1
0	3815	1231.279858903026	1
0	3830	1236.980666098648	1
0	3836	1238.503430929846	1
0	3849	1242.080871062816	2
0	3856	1244.294107865423	0
0	3861	1245.649539893259	0
0	3870	1248.080263178793	1
0	3882	1253.082797166074	0
0	3886	1253.743749797342	1
0	3901	1259.243502180788	1
0	3910	1261.68023725983	0
0	3919	1264.895358044419	1
0	3921	1265.225256467469	0
0	3927	1266.949263103537	0
0	3932	1269.322527159815	1
0	3936	1270.239109149899	1
0	3942	1272.354170959205	0
0	3952	1275.331983396316	1
0	3955	1276.640751202122	0
0	3966	1280.923998842014	1
0	3983	1286.497980801852	1
0	3999	1291.572934872586	0
0	4003	1291.924943084128	1
0	4010	1294.205614674254	0
0	4022	1297.517673812339	1
0	4043	1302.815785544224	2
0	4049	1304.775294241725	0
0	4062	1308.735308886969	1
0	4063	1308.979224059847	0
0	4068	1310.487179266405	1
0	4080	1314.653361954957	1
0	4090	1318.016727859271	0
0	4100	1320.596403555942	1
0	4107	1322.784344493058	0
0	4116	1325.768468807216	1
0	4127	1328.623115152698	0
0	4133	1330.438193440203	0
0	4139	1330.992145290363	1
0	4142	1332.375368404316	0
0	4144	1333.035680361555	0
0	4150	1336.427732015026	1
0	4152	1338.16058023355	0
0	4158	1342.061652034053	1
0	4170	1347.392836506243	1
0	4187	1353.348990760042	1
0	4203	1357.831849786568	0
0	4210	1358.978943222665	1
0	4228	1364.028769763649	2
0	4230	1364.475256636269	1
0	4241	1367.007668696924	0
0	4249	1369.124730732754	1
0	4252	1369.992928577584	0
0	4256	1371.001816786591	0
0	4261	1372.929612132833	0
0	4266	1374.676673727805	1
0	4272	1378.324309704589	0
0	4277	1379.919710759536	1
0	4289	1385.364149862199	1
0	4303	1390.972432692067	1
0	4321	1396.330477399283	2
0	4322	1396.365185326195	0
0	4329	1398.657512117058	0
0	4334	1400.851337679891	0
0	4338	1401.357614698817	1
0	4345	1405.218507681036	1
0	4352	1406.724852183598	1
0	4356	1407.987741080576	0
0	4365	1412.113486268089	1
0	4372	1415.429515974591	0
0	4377	1417.550755456786	0
0	4381	1417.99434795533	1
0	4383	1418.963644813045	0
0	4390	1423.219924291593	1
0	4402	1428.818430101263	1
0	4419	1434.507299596441	1
0	4438	1440.107670063965	0
0	4443	1440.462243851271	1
0	4454	1443.279778476917	0
0	4459	1444.828822456994	0
0	4461	1444.89272111945	0
0	4465	1445.880217941009	1
0	4478	1451.846628021446	1
0	4480	1452.779303378657	0
0	4490	1456.891805929362	1
0	4493	1457.776892494175	0
0	4498	1460.119892777756	0
0	4505	1462.821754861388	1
0	4513	1467.959640718295	0
0	4517	1468.15043131518	1
0	4527	1473.991052197871	0
0	4531	1474.143544818971	1
0	4542	1479.469029716214	1
0	4555	1484.92653896217	1
0	4571	1490.081598363931	0
0	4575	1490.289634663609	1
0	4591	1494.48860858427	0
0	4599	1495.982949916969	1
0	4600	1496.574951633693	0
0	4607	1498.760819848275	0
0	4611	1500.253999529174	0
0	4615	1501.28389761876	1
0	4626	1506.951528336151	1
0	4641	1512.070862849007	1
0	4658	1517.309741631846	2
0	4664	1518.897041811955	0
0	4667	1519.230438348718	0
0	4670	1520.244725312335	1
0	4679	1523.078442268071	1
0	4689	1527.547205683423	0
0	4694	1528.562506678977	1
0	4710	1534.34417138877	1
0	4726	1538.995980953329	0
0	4730	1539.457515769169	1
0	4742	1543.252677346693	0
0	4750	1545.287663357562	1
0	4771	1550.631601838857	2
0	4776	1551.940442430201	0
0	4791	1556.588897887614	1
0	4796	1558.488653924662	0
0	4807	1561.854525749801	1
0	4827	1567.649159708988	2
0	4835	1569.77989291935	1
0	4844	1572.322279505314	1
0	4851	1573.090419447977	2
0	4864	1577.69064137572	0
0	4870	1578.353628688022	1
0	4877	1581.071339537621	1
0	4889	1584.241578190583	2
0	4894	1584.952892655387	0
0	4908	1589.30324305221	1
0	4914	1591.018450573086	1
0	4929	1594.636809156272	2
0	4940	1597.530549928892	0
0	4951	1600.611664730586	1
0	4952	1600.803304524509	1
0	4961	1603.293310729438	0
0	4963	1603.906838348367	0
0	4971	1606.520670974623	1
0	4978	1609.399876810024	0
0	4982	1610.598877435546	0
0	4987	1612.263350562887	1
0	4994	1617.071129810527	0
0	4999	1618.130374851167	1
0	5010	1623.454339819956	1
0	5015	1625.850857578214	0
0	5025	1628.655244573248	1
0	5040	1633.91764573799	1
0	5049	1637.283778309817	0
0	5055	1638.420532855319	0
0	5060	1639.727350540688	1
0	5070	1643.100939369408	0
0	5077	1645.435454019109	1
0	5081	1646.65313008369	0
0	5083	1646.866390417674	0
0	5090	1650.912600684209	1
0	5101	1656.504839238009	1
0	5108	1659.541457761657	0
0	5113	1661.432849335481	0
0	5118	1662.218671458537	1
0	5130	1668.185289192243	1
0	5132	1668.587600521857	0
0	5143	1673.484058147759	1
0	5157	1678.918421871724	1
0	5177	1684.624771459258	2
0	5181	1685.782384531918	0
0	5190	1689.828515969446	1
0	5194	1690.437840834723	1
0	5214	1695.828235157297	2
0	5221	1698.431238873976	0
0	5233	1701.252198988569	1
0	5240	1704.29403595882	1
0	5254	1706.859322879926	2
0	5258	1707.959939327554	0
0	5273	1712.784847498868	1
0	5274	1712.894333668515	1
0	5277	1713.990820558389	0
0	5292	1718.697510401948	1
0	5308	1723.930819727944	0
0	5314	1724.441120448286	1
0	5325	1727.744636985006	0
0	5336	1730.401445338965	1
0	5342	1732.397702818267	0
0	5354	1735.44752495689	1
0	5362	1737.730583283932	0
0	5373	1740.90325993369	1
0	5390	1745.592534270132	0
0	5397	1746.568357418986	1
0	5400	1747.940815325707	0
0	5413	1752.180036358301	0
0	5418	1752.272557953834	1
0	5434	1758.194511958859	1
0	5440	1760.02321426186	0
0	5453	1763.236504276278	1
0	5457	1764.782472432584	0
0	5472	1768.766723713134	1
0	5476	1769.965282465444	0
0	5490	1774.173045887607	1
0	5498	1777.400590947708	0
0	5504	1779.291332933347	0
0	5508	1779.327480296832	1
0	5525	1785.174988982495	1
0	5536	1788.480321312202	0
0	5544	1790.219397008414	1
0	5550	1792.694152573817	0
0	5564	1796.107602501283	1
0	5573	1798.32146807457	0
0	5577	1799.492811141997	0
0	5584	1801.223102169106	1
0	5600	1807.00991749274	1
0	5601	1807.355997767295	0
0	5614	1812.04016485996	1
0	5616	1812.614490598666	0
0	5634	1817.983277690359	1
0	5635	1818.369560915389	0
0	5644	1820.891351296096	0
0	5652	1823.74672175501	1
0	5655	1824.648507255706	0
0	5669	1829.586985585741	1
0	5683	1835.508425566131	1
0	5693	1838.455484214002	0
0	5702	1840.747728417391	1
0	5715	1844.406897554868	0
0	5724	1846.058711876391	1
0	5743	1851.13130138721	2
0	5745	1852.004772563575	1
0	5758	1856.044654913593	0
0	5762	1856.312724792628	1
0	5772	1859.279459314764	0
0	5783	1862.289824514181	1
0	5794	1865.889615127465	0
0	5801	1867.798757326553	1
0	5815	1872.075561989329	0
0	5821	1872.969414092364	1
0	5841	1878.582994594701	2
0	5858	1883.563090498791	1
0	5861	1884.09536431648	0
0	5865	1884.503383736123	1
0	5871	1886.244889785183	0
0	5874	1886.659136354922	0
0	5878	1888.040847238266	0
0	5883	1889.769183989145	1
0	5886	1890.842111626872	0
0	5893	1894.85985582275	1
0	5901	1900.182613215057	0
0	5905	1900.624084167878	1
0	5917	1906.534554088951	1
0	5919	1907.041276234781	0
0	5929	1911.785968458976	1
0	5946	1917.607709387548	1
0	5965	1923.18306490476	2
0	5982	1928.116976788381	0
0	5985	1928.949381746349	0
0	5990	1929.058788423191	1
0	5997	1931.853973068294	1
0	6006	1934.493869835741	1
0	6024	1940.028178759848	2
0	6032	1941.754461043163	0
0	6037	1944.182659213311	1
0	6043	1945.563730008665	1
0	6045	1946.038077617296	0
0	6051	1948.072564029133	0
0	6054	1949.002098070339	0
0	6059	1950.821925309252	1
0	6070	1956.477300348224	1
0	6075	1958.402482436733	0
0	6087	1961.864382724974	1
0	6102	1967.450578725196	1
0	6119	1972.931027995653	2
0	6133	1977.228211209291	0
0	6139	1978.508393175898	1
0	6149	1981.437493911592	0
0	6158	1983.814847851636	1
0	6169	1987.59676160931	0
0	6173	1988.625596493831	0
0	6175	1988.972330109564	1
0	6180	1989.713666198773	1
0	6181	1990.694079044157	0
0	6194	1994.748445243107	1
0	6214	2000.181299985152	1
0	6225	2003.631842358269	0
0	6235	2006.076773064209	1
0	6237	2006.319204362107	0
0	6254	2011.727919009978	1
0	6272	2017.324155733453	2
0	6285	2020.70234829618	0
0	6288	2021.314580109436	1
0	6293	2022.542010501491	1
0	6310	2027.366672640083	0
0	6315	2028.539610866688	1
0	6324	2030.532369989435	0
0	6332	2033.114506301702	0
0	6336	2033.6706371624	1
0	6339	2034.91722946288	0
0	6352	2039.407497383652	1
0	6364	2044.759375909226	0
0	6366	2044.955080269833	0
0	6370	2045.117306146303	1
0	6384	2051.071842324685	1
0	6387	2052.128937566536	0
0	6390	2053.331460523882	0
0	6396	2056.337404307674	1
0	6407	2061.937256748087	1
0	6421	2066.665506624964	0
0	6426	2067.472063880411	1
0	6443	2073.448602960442	1
0	6462	2078.849155035798	2
0	6472	2081.556120194841	0
0	6480	2083.489869268374	0
0	6484	2083.961479657792	1
0	6487	2084.986941161096	0
0	6498	2089.069017408412	1
0	6499	2089.115967984541	0
0	6503	2090.592862937013	1
0	6513	2094.975755596297	1
0	6533	2100.731540975157	1
0	6534	2101.107183298673	0
0	6549	2106.29249828192	1
0	6564	2109.859142762604	0
0	6566	2109.971434925681	0
0	6573	2111.317765364187	1
0	6579	2113.889291023597	0
0	6584	2116.022643177998	0
0	6588	2116.622950606045	1
0	6600	2122.179059594168	1
0	6615	2127.358877371528	1
0	6631	2132.301544417275	0
0	6638	2132.880502157609	1
0	6657	2138.187769257461	2
0	6658	2138.40878334711	1
0	6669	2142.679049246243	0
0	6676	2143.543011505387	1
0	6697	2148.674148795192	2
0	6699	2149.386846547363	0
0	6713	2154.142304508711	1
0	6724	2157.313325388587	1
0	6727	2158.44903758913	0
0	6730	2158.8696130797	0
0	6735	2159.899404485241	1
0	6737	2160.35823424486	0
0	6741	2162.020747425614	0
0	6747	2165.603669160275	1
0	6756	2170.86709444923	0
0	6760	2171.156788615739	1
0	6768	2176.037152770438	0
0	6772	2176.517743496453	1
0	6781	2182.015061634589	1
0	6793	2186.244513682667	0
0	6795	2186.724810888405	0
0	6799	2187.656629878558	1
0	6811	2193.256277417993	1
0	6827	2199.070362532507	1
0	6845	2204.282655769023	2
0	6848	2205.198960461187	0
0	6851	2205.342770127807	0
0	6863	2209.884648812464	1
0	6866	2210.822892476566	1
0	6879	2215.231433260249	1
0	6897	2220.902402509464	2
0	6908	2224.130417622737	0
0	6915	2225.941404687235	1
0	6932	2231.020164348412	2
0	6934	2231.143352755573	0
0	6942	2233.949557449428	0
0	6950	2236.183010970702	1
0	6964	2241.710955543903	1
0	6968	2242.591790779138	1
0	6974	2244.57631490635	0
0	6989	2247.610179924633	1
0	7007	2252.979522995412	2
0	7008	2253.378926415573	1
0	7018	2255.48742900823	0
0	7027	2258.410574809526	0
0	7032	2258.558609641617	1
0	7040	2262.479239945292	1
0	7048	2264.250676290359	1
0	7061	2268.28555947134	0
0	7070	2269.847487300163	1
0	7074	2270.960584768671	0
0	7087	2275.605345176061	1
0	7091	2276.803228864322	0
0	7094	2277.506456137164	0
0	7103	2281.187800832087	1
0	7104	2281.604587687987	0
0	7111	2284.970058333238	0
0	7117	2286.688397502055	1
0	7129	2291.713308206055	1
0	7139	2295.141520582832	0
0	7145	2297.190942585928	1
0	7158	2302.093015923391	0
0	7162	2302.603200120147	1
0	7176	2307.634344595711	1
0	7189	2312.337686201319	0
0	7195	2312.968827421538	1
0	7206	2316.551249858919	0
0	7214	2318.075099269621	1
0	7221	2320.445212690386	0
0	7229	2323.516014568269	0
0	7234	2324.029036317713	1
0	7237	2325.584926539326	0
0	7247	2329.886810223799	1
0	7254	2332.671614670305	0
0	7261	2335.35845233872	1
0	7262	2335.633696945029	0
0	7272	2340.860959266657	0
0	7276	2340.916956487805	1
0	7286	2346.458747006016	1
0	7301	2351.784859973466	1
0	7319	2357.758681747358	2
0	7324	2359.56301378528	0
0	7339	2363.615929089946	1
0	7341	2364.092803438888	0
0	7351	2369.043695934693	1
0	7356	2369.597983484616	1
0	7375	2374.625046661118	2
0	7382	2377.104271708169	0
0	7394	2379.812309229974	1
0	7411	2385.472823304817	2
0	7430	2390.572471050307	2
0	7437	2392.614627194814	1
0	7454	2396.349585224403	2
0	7461	2398.364911006759	1
0	7473	2401.485522540514	1
0	7479	2402.109750498546	2
0	7492	2406.096058618157	0
0	7501	2408.082302247168	1
0	7505	2409.573961038487	0
0	7518	2413.341422016726	1
0	7530	2417.629696336563	1
0	7539	2419.20613472489	2
0	7561	2424.417018849862	2
0	7575	2429.174377416953	0
0	7577	2429.614215722068	1
0	7582	2429.931165944779	1
0	7594	2433.327828581557	1
0	7603	2435.563868384802	2
0	7624	2441.193706549931	2
0	7630	2442.678531051836	1
0	7633	2443.158151793403	1
0	7648	2446.303680046223	2
0	7656	2449.21565079374	1
0	7667	2451.363242176589	2
0	7684	2456.597860704171	0
0	7689	2456.72523633786	1
0	7691	2457.182979659166	0
0	7708	2461.977132598166	1
0	7711	2463.11051013937	1
0	7717	2464.2183855914	1
0	7729	2467.094410237851	2
0	7733	2467.848899784145	0
0	7744	2471.326538289544	0
0	7750	2472.852463737591	1
0	7759	2476.694626064266	1
0	7765	2478.05248595308	1
0	7783	2483.268377894298	2
0	7804	2488.650322247059	2
0	7816	2492.471616906224	0
0	7823	2493.687902169763	1
0	7839	2498.908506606468	2
0	7850	2502.278731726221	0
0	7855	2503.177302134336	1
0	7859	2503.924626422809	1
0	7865	2505.835939702689	1
0	7867	2505.872161011324	0
0	7875	2509.626612844523	1
0	7879	2509.651642525797	1
0	7886	2511.479263184703	0
0	7898	2515.352743037972	1
0	7908	2519.129183738954	0
0	7916	2520.70894044125	1
0	7929	2524.892539937278	0
0	7935	2526.021521859798	1
0	7936	2526.165788587178	0
0	7953	2531.600187417581	1
0	7954	2532.210483869765	0
0	7959	2532.838016344115	0
0	7961	2533.770570459073	0
0	7968	2536.996556973313	1
0	7973	2540.174910381665	0
0	7979	2542.84683120227	1
0	7988	2547.93755647237	1
0	7996	2551.215887385416	0
0	7998	2551.400731683238	0
0	8000	2552.432895226866	0
0	8004	2553.119424374304	1
0	8012	2559.032237200062	1
0	8014	2560.184618697498	0
0	8021	2564.761339681684	1
0	8031	2570.04595788917	1
0	8046	2575.585871103215	1
0	8064	2580.662944393228	2
0	8078	2585.75635718833	0
0	8082	2586.062050918927	0
0	8086	2586.226278205398	1
0	8087	2586.470104389935	1
0	8089	2587.039589309709	0
0	8094	2589.595440819505	0
0	8100	2591.265744738742	1
0	8111	2597.134671839182	1
0	8127	2602.831710756286	1
0	8141	2607.250563421166	0
0	8147	2608.515408119648	1
0	8173	2614.321653845483	2
0	8189	2619.589383299226	2
0	8192	2620.448681792007	1
0	8203	2623.599681184623	0
0	8210	2624.799327515062	1
0	8218	2627.655635772619	0
0	8228	2629.811051161956	1
0	8231	2630.903391677533	1
0	8241	2633.61486452899	0
0	8248	2635.389989885731	1
0	8256	2637.424952314116	0
0	8264	2640.337453349141	0
0	8269	2640.433152252106	1
0	8280	2644.682588580409	0
0	8285	2645.639086917738	1
0	8286	2645.964253377398	0
0	8289	2646.838056325325	0
0	8297	2651.486740408695	1
0	8304	2655.584462145574	0
0	8309	2656.669819531959	1
0	8320	2662.258710187624	1
0	8337	2667.601109219945	1
0	8345	2670.050367879679	0
0	8356	2672.994391795245	1
0	8364	2676.00099157984	0
0	8374	2678.818913670952	1
0	8396	2684.801437604005	2
0	8399	2686.268319379185	0
0	8409	2688.965187641438	0
0	8414	2689.941363355142	1
0	8419	2691.682854137962	0
0	8431	2695.798196536952	1
0	8444	2701.102878944713	1
0	8453	2703.908247986805	0
0	8457	2704.986319458691	0
0	8463	2706.749933392505	1
0	8468	2708.997963664119	1
0	8477	2712.140076218868	1
0	8493	2717.004250799651	0
0	8499	2717.741459158711	1
0	8515	2722.831903027833	0
0	8517	2722.943414380539	0
0	8519	2723.252474969716	0
0	8523	2723.462259377815	1
0	8531	2727.637188134828	0
0	8536	2728.963218043322	1
0	8547	2734.061921734825	1
0	8548	2734.310655557081	0
0	8554	2737.011669231226	0
0	8560	2739.37171468767	1
0	8570	2744.68182284664	1
0	8585	2750.082256485705	0
0	8589	2750.38964372384	1
0	8604	2756.051210676083	1
0	8609	2757.304319768326	0
0	8614	2759.125940932422	0
0	8622	2761.567161079958	1
0	8628	2764.294261009778	0
0	8636	2766.99141900567	1
0	8651	2772.758020765145	1
0	8652	2773.235992370517	0
0	8664	2778.353662659876	0
0	8669	2778.483578725249	1
0	8684	2784.001715173476	1
0	8689	2785.718038726828	0
0	8702	2789.013073878127	1
0	8720	2794.319444566496	2
0	8722	2795.563489697872	0
0	8736	2800.247698707968	1
0	8755	2806.20185596484	0
0	8759	2806.212244995866	1
0	8765	2807.769316046728	0
0	8774	2811.368111099694	1
0	8779	2811.564239142925	1
0	8780	2812.206525468846	0
0	8788	2815.234190745391	0
0	8792	2816.533233763762	0
0	8797	2817.211264983748	1
0	8806	2822.454456222008	1
0	8823	2827.833329194688	1
0	8826	2828.546965832005	0
0	8844	2833.804235311222	1
0	8864	2839.602909274629	2
0	8880	2844.023277834751	1
0	8883	2844.591377233036	0
0	8888	2844.671763825227	1
0	8890	2845.635135173444	0
0	8905	2850.332860717547	1
0	8923	2855.483735691986	2
0	8924	2855.729501910854	0
0	8938	2860.474494631516	0
0	8942	2860.889709100357	1
0	8943	2861.15762419125	1
0	8957	2866.405506570355	1
0	8959	2867.186698285161	0
0	8973	2871.481546450636	1
0	8985	2875.437816223939	0
0	8993	2877.173894490345	1
0	9013	2883.151427990288	2
0	9035	2889.127258106364	2
0	9042	2890.303674001477	0
0	9044	2891.003501259833	1
0	9055	2894.561130960468	1
0	9060	2895.50096381595	0
0	9072	2900.486661171071	1
0	9075	2900.622537415471	1
0	9093	2905.585435583485	2
0	9103	2909.573476892776	0
0	9111	2911.046413074476	1
0	9132	2916.60187386977	2
0	9135	2917.369272887586	0
0	9147	2922.136880157042	1
0	9149	2922.556940560457	1
0	9153	2922.569325990039	1
0	9166	2926.444670189285	0
0	9174	2928.26384829124	1
0	9186	2931.538220634209	0
0	9195	2933.664984110971	1
0	9197	2934.194292007242	0
0	9215	2939.232964063059	1
0	9233	2944.452377981035	0
0	9237	2944.66984521667	1
0	9252	2949.295815338261	0
0	9255	2949.98830599908	0
0	9261	2950.597691355734	1
0	9262	2951.134781193099	0
0	9274	2956.374816291961	1
0	9283	2960.318564923126	0
0	9291	2962.224443956739	1
0	9307	2967.971131579014	1
0	9325	2973.08885002322	2
0	9345	2978.526277455032	1
0	9350	2978.716747576599	2
0	9367	2984.210433815601	2
0	9369	2984.359258706792	0
0	9372	2984.89527812786	1
0	9376	2986.610521930266	1
0	9387	2989.850134596456	1
0	9395	2992.257034489995	0
0	9406	2994.970041271992	1
0	9416	2997.826337592091	0
0	9421	2999.47336741164	0
0	9427	3000.188647353085	1
0	9437	3004.562659225072	0
0	9443	3005.358021523798	1
0	9448	3007.095089925214	0
0	9450	3007.258785057342	0
0	9457	3011.069113903208	1
0	9460	3013.44031428778	0
0	9467	3016.349503257074	1
0	9479	3022.071193162347	1
0	9494	3027.591129775387	1
0	9502	3030.004216592988	0
0	9504	3030.241321551957	0
0	9506	3030.633161692061	0
0	9512	3033.480184654468	1
0	9524	3039.18362874514	1
0	9539	3044.570230447217	1
0	9557	3049.738895793907	2