version 3
run General-7-20240428-16:41:49-11295
attr configname General
attr datetime 20240428-16:41:49
attr datetimef 20240428-164149
attr experiment General
attr inifile omnetpp.ini
attr iterationvars $0=true
attr iterationvarsd true
attr iterationvarsf true-
attr measurement $0=true
attr network Supermarket
attr processid 11295
attr repetition 7
attr replication #7
attr resultdir results
attr runnumber 7
attr seedset 7
config network Supermarket
config repeat 10
config seed-set 7
config num-rngs 10
config **.use_random_strategy true

vector 0 Supermarket queueSizeOverTime:vector ETV
attr recordingmode vector
attr source updateQueue
attr title queueSizeOverTime
vector 1 Supermarket customerWaitingTime:vector ETV
attr interpolationmode none
attr recordingmode vector
attr source customerFinished
attr title "cust waiting time"
0	7	5.927480536979	1
0	15	11.79990683496	2
0	22	16.832297099056	3
0	30	22.284860794898	1
0	40	27.44128295104	1
0	54	32.314152033882	2
0	58	32.567229147535	2
0	67	36.084385070715	0
0	73	37.911534581799	1
0	87	42.678213348147	1
0	91	43.250946352957	2
0	109	48.862641130341	3
0	112	49.656237698741	1
0	126	54.356810688274	2
0	142	59.975448140176	1
0	146	60.879776058484	0
0	159	65.736073767766	1
0	167	67.36351602571	0
0	171	68.814355671753	2
0	184	71.650033100275	3
0	188	73.514398014171	2
0	200	77.113441777648	3
0	206	79.183128256584	1
0	213	81.560588833528	0
0	217	82.123745123623	2
0	228	88.00054567866	1
0	231	89.489128756918	2
0	244	93.567657273495	1
0	253	96.122091206489	1
0	266	99.552973893936	2
0	282	104.082249564235	0
0	289	105.086729686939	3
0	304	110.262967670335	1
0	316	114.261640248937	0
0	326	116.198055816114	1
0	328	117.472873995665	2
0	341	120.38693349948	0
0	348	121.479624958241	3
0	352	123.209220634655	2
0	367	127.375238730337	1
0	386	132.873588289132	2
0	402	137.244159366702	0
0	411	138.613742965271	3
0	416	140.301409501703	1
0	420	141.594022544097	2
0	430	144.215689319183	3
0	444	149.443022233431	2
0	459	154.620811297788	1
0	481	160.130339906082	3
0	484	160.853545345942	2
0	499	164.547285326405	2
0	507	166.109123687955	3
0	522	170.601847377376	2
0	525	171.300790420847	1
0	529	171.356622154123	2
0	530	171.602799934798	1
0	551	176.509441688421	2
0	571	182.171637884105	2
0	577	183.573054348928	1
0	581	184.620571914476	1
0	587	186.527225655624	1
0	595	187.651114558332	2
0	609	191.43489762465	1
0	614	192.468647415287	0
0	620	192.958445896158	3
0	621	193.002816897929	0
0	633	198.163331165906	4
0	646	203.998937516935	2
0	652	208.216814175825	1
0	659	209.915803745851	1
0	664	212.295803345739	3
0	674	215.040057609553	2
0	675	215.081186723659	1
0	693	220.969256469278	2
0	696	222.232319786558	0
0	707	226.775862674225	1
0	719	231.530065217518	0
0	721	231.576486318955	2
0	725	232.032288938524	1
0	729	233.101536202007	1
0	731	233.838754373249	0
0	743	237.386285741111	1
0	758	242.75494960276	2
0	775	248.734231770966	3
0	779	250.904306321404	2
0	782	251.567858848834	1
0	793	254.574572988782	1
0	815	260.064339364642	2
0	821	261.857552250962	1
0	828	263.442506564661	0
0	835	265.145431305045	2
0	853	271.086875777688	1
0	869	275.785783250812	1
0	876	276.986039183332	2
0	880	278.512190018545	1
0	885	279.706346415677	1
0	891	281.000207467933	0
0	899	282.390622625357	2
0	916	288.043716132172	1
0	930	292.400119946801	0
0	937	293.512631056129	3
0	943	295.992536175528	0
0	951	299.113964646819	1
0	963	303.337257067436	2
0	969	304.539278317473	2
0	976	307.2962094309	0
0	985	310.357196494236	1
0	1000	315.648773300459	1
0	1002	315.817478794952	0
0	1016	320.883359071098	3
0	1027	325.321923602255	2
0	1033	326.105498846851	3
0	1047	331.221138481747	4
0	1059	336.09152162587	0
0	1061	336.324202437763	1
0	1066	336.85625835438	5
0	1069	338.826977541315	0
0	1076	342.828502261077	1
0	1082	345.669473015934	4
0	1086	347.397378842577	3
0	1090	347.866468867983	4
0	1103	353.841074148423	2
0	1114	359.452765977473	1
0	1131	365.079606937242	1
0	1141	368.230280633197	1
0	1151	370.455467462537	2
0	1156	371.660355133584	0
0	1173	376.361345514652	5
0	1176	377.851295702622	4
0	1179	378.92494998092	0
0	1187	381.463391234164	3
0	1199	387.045930219811	1
0	1216	392.977632295803	5
0	1217	393.274201384509	0
0	1219	393.942284564249	2
0	1231	398.466469982403	1
0	1248	404.172882706157	6
0	1260	408.72220026026	5
0	1266	409.5554951122	1
0	1281	414.492788100144	4
0	1283	414.535436976231	1
0	1290	415.406359920275	5
0	1311	421.125923712154	0
0	1315	421.38201133697	2
0	1328	426.01394708792	1
0	1332	426.709233082595	1
0	1350	432.374618868108	6
0	1352	432.791373479061	0
0	1360	435.032960264938	5
0	1369	437.375492148564	2
0	1380	441.407951487691	1
0	1384	442.445528207924	0
0	1388	442.653425895606	6
0	1398	447.703405608187	1
0	1403	449.891062507283	5
0	1415	453.146596992385	6
0	1428	458.542522883272	2
0	1433	460.289683961423	1
0	1435	460.409642965415	0
0	1438	460.959642534141	0
0	1444	463.596389274575	1
0	1453	469.521708154349	1
0	1458	471.129214410547	5
0	1470	475.215108205095	2
0	1478	478.953822504842	1
0	1481	479.743157170245	0
0	1483	479.763329954927	4
0	1490	480.746394933896	1
0	1507	486.39750957605	1
0	1520	491.060769864	3
0	1526	491.81462102802	4
0	1539	495.676335072607	0
0	1548	497.711599088735	1
0	1555	500.130798837167	0
0	1564	502.931300109946	1
0	1573	506.316348182733	0
0	1582	508.780316186133	5
0	1589	510.432077636705	0
0	1599	514.376629581438	1
0	1602	515.760581795932	4
0	1617	520.334253557954	5
0	1634	525.851864341177	2
0	1649	530.951898260504	2
0	1650	531.603130687605	1
0	1660	535.469789549587	1
0	1665	536.796130973143	6
0	1683	542.250699242806	2
0	1684	542.561030799514	5
0	1700	547.885811412238	1
0	1721	553.19222844252	3
0	1723	554.161927232978	2
0	1733	557.018563624817	0
0	1740	559.017936193613	3
0	1748	562.126848869834	0
0	1757	564.500866514394	6
0	1766	570.133142159312	5
0	1770	570.479245828927	4
0	1783	576.445436314676	6
0	1786	577.604472631813	5
0	1797	582.006400569106	1
0	1801	583.275192854223	3
0	1805	583.956673959731	2
0	1816	587.210052232488	3
0	1826	591.280371228455	4
0	1831	592.26967408694	4
0	1842	596.217637366728	0
0	1847	597.305666312339	1
0	1848	597.676010067331	3
0	1868	603.238296164429	5
0	1884	608.972335447321	2
0	1893	612.533666489293	4
0	1900	614.061631444373	4
0	1905	615.56054881924	3
0	1920	619.712452936216	1
0	1935	624.364888617766	1
0	1940	624.874903091459	5
0	1953	628.504621098279	4
0	1962	629.929901491614	2
0	1978	635.33055874053	5
0	1981	636.507010662336	2
0	1984	637.065437765208	1
0	1992	639.020738259305	0
0	1999	640.494055140294	2
0	2008	643.787513143029	4
0	2013	644.872010875483	1
0	2015	645.381733972569	0
0	2021	646.405022415096	5
0	2028	651.047221188196	4
0	2034	652.361109521702	3
0	2044	657.762204866387	1
0	2059	663.165677356297	1
0	2064	665.291176299565	2
0	2080	669.08455177629	3
0	2090	673.563120475849	0
0	2098	674.965467496306	4
0	2105	677.140196612682	0
0	2109	679.588864838357	3
0	2114	680.658408959393	1
0	2121	683.870317866672	3
0	2131	686.499476816968	4
0	2144	691.638355625558	4
0	2145	691.838755655454	3
0	2159	696.990459266582	2
0	2164	698.443731450005	3
0	2172	701.977953328399	1
0	2176	702.209577675674	2
0	2194	707.408629375974	1
0	2195	707.587071705255	2
0	2203	710.179230688486	1
0	2206	710.675214675025	2
0	2214	712.485175112494	2
0	2233	717.873278212267	3
0	2252	723.251230005407	2
0	2261	725.722997685897	1
0	2269	727.820724827352	2
0	2278	729.087223935406	3
0	2292	734.634976131487	2
0	2297	734.854413061402	3
0	2304	737.223721361024	0
0	2317	740.154750608373	1
0	2322	742.021708494051	1
0	2339	745.887725868262	2
0	2340	745.972587132593	0
0	2348	749.02889729524	1
0	2352	750.819900344126	0
0	2356	750.915096071781	1
0	2372	755.998957735719	1
0	2391	761.529155231779	4
0	2393	761.676771189315	3
0	2414	767.446546271676	2
0	2418	768.0858152	1
0	2422	769.716940519517	0
0	2437	773.225702119292	3
0	2451	778.870824253652	1
0	2461	782.091630094682	2
0	2464	782.484803983941	2
0	2472	784.06891140202	2
0	2477	785.395696887746	0
0	2483	787.093524475117	1
0	2493	789.126300728879	2
0	2508	795.048280014423	3
0	2513	796.922064668381	2
0	2527	800.812031349399	3
0	2533	803.24574923911	1
0	2543	806.183176015503	2
0	2558	811.19558798382	3
0	2565	814.150094386422	2
0	2573	816.261415593326	3
0	2580	818.61314195872	2
0	2591	822.018779384671	1
0	2599	824.418015342557	1
0	2613	827.873639664147	2
0	2620	830.49741438241	1
0	2632	832.985996805131	4
0	2647	837.74663506134	3
0	2654	838.664154359605	2
0	2662	841.011736612186	1
0	2677	844.535919750109	2
0	2684	846.752637030905	1
0	2688	848.440930534858	1
0	2697	850.312707690289	4
0	2705	852.925777335187	0
0	2718	856.066905423533	2
0	2719	856.412839163677	3
0	2722	857.357606067671	1
0	2736	861.160830499371	2
0	2750	866.713836280163	2
0	2760	870.395617527193	1
0	2767	871.872789506567	3
0	2774	874.36852796725	2
0	2778	875.523459764548	2
0	2781	876.679900882766	1
0	2785	876.941708956844	2
0	2796	880.958780526067	1
0	2799	881.715220455434	0
0	2805	882.394776233936	1
0	2819	888.030477058141	3
0	2830	892.33780242782	0
0	2836	893.283271424005	1
0	2837	893.892533726639	0
0	2849	898.306185377062	2
0	2862	903.731802648165	1
0	2865	905.26323091751	1
0	2868	906.545021915809	0
0	2870	906.695718170379	2
0	2876	908.949534190119	1
0	2892	914.809045312925	2
0	2900	918.237611880175	1
0	2908	920.321562814292	2
0	2923	925.730557172558	3
0	2924	925.733497522888	0
0	2934	930.764751653884	4
0	2938	932.58115238196	1
0	2948	936.678795541868	1
0	2964	942.164191352435	5
0	2979	947.690251783467	6
0	2980	948.007736266238	5
0	2982	948.102222930755	0
0	2996	952.982778551289	1
0	2999	954.626579771985	0
0	3010	958.970637389691	1
0	3029	964.956248770235	2
0	3046	970.178238858702	3
0	3060	975.629809923005	6
0	3062	976.484681613279	2
0	3064	976.487253863478	5
0	3079	981.12209353596	3
0	3094	986.455418944592	6
0	3106	991.407734642969	0
0	3110	991.686357802246	7
0	3119	997.000778020593	2
0	3124	997.194623954362	1
0	3125	998.096370451965	6
0	3139	1003.091011199402	2
0	3156	1008.309974868782	7
0	3161	1010.36327454541	1
0	3171	1013.626529994654	3
0	3172	1013.637299288294	6
0	3189	1019.417101003463	7
0	3194	1021.112839939074	2
0	3208	1025.110729913461	2
0	3225	1030.965062788223	8
0	3233	1034.63153688493	1
0	3238	1035.343806290997	0
0	3242	1036.723498233362	3
0	3252	1041.975201586026	7
0	3256	1042.069815638243	8
0	3262	1045.256805620506	2
0	3269	1047.565597087844	3
0	3275	1050.274069078497	7
0	3283	1052.817518845201	8
0	3293	1057.863508632407	9
0	3304	1063.531942547067	1
0	3320	1069.093387363712	1
0	3331	1072.891867566971	0
0	3333	1073.041870372021	2
0	3339	1074.633232941619	2
0	3351	1079.097929425418	8
0	3355	1079.724299734226	3
0	3370	1085.087121316698	3
0	3376	1087.161567788921	2
0	3387	1090.723211621168	1
0	3406	1096.18942475482	2
0	3424	1101.769357507229	7
0	3429	1102.158605284291	3
0	3431	1103.224433396244	2
0	3441	1106.297988413717	1
0	3445	1106.501161604301	6
0	3452	1107.98941808939	3
0	3453	1108.026556838538	2
0	3463	1111.165674886436	2
0	3477	1113.890314155026	3
0	3494	1118.923525491963	7
0	3513	1124.525214760332	2
0	3533	1130.039976639208	3
0	3543	1133.256838462551	1
0	3545	1133.355549652013	2
0	3547	1133.875434658957	2
0	3558	1135.954454359832	2
0	3563	1137.261779982367	1
0	3570	1139.330870397155	6
0	3577	1141.041108384031	7
0	3599	1146.644800761948	3
0	3617	1152.066624294036	2
0	3639	1157.727646814427	3
0	3641	1158.326159854303	2
0	3644	1159.263670465558	6
0	3648	1159.819594807924	1
0	3661	1163.178096177061	2
0	3667	1163.704380687094	3
0	3675	1166.227878652163	2
0	3683	1168.374857102987	0
0	3689	1169.219410969644	1
0	3697	1172.049068936153	1
0	3709	1174.36273276643	2
0	3731	1180.256113223034	7
0	3734	1180.437575299058	1
0	3739	1181.626508802874	6
0	3757	1185.937839590247	3
0	3765	1187.619245699614	0
0	3777	1191.046228036518	7
0	3783	1193.723448378035	6
0	3792	1196.412328312174	2
0	3799	1199.210591607028	2
0	3808	1201.785931490828	1
0	3817	1204.549248986993	1
0	3830	1207.781026353362	3
0	3850	1213.161865219708	2
0	3855	1214.17047011084	5
0	3866	1217.701968511451	4
0	3871	1218.299069107744	4
0	3894	1224.234145452735	3
0	3905	1226.775125543469	3
0	3916	1229.590526533081	5
0	3917	1229.591450582259	0
0	3922	1230.641466336557	2
0	3925	1231.823807761887	2
0	3934	1234.955134113087	3
0	3942	1238.643297382979	2
0	3948	1240.047217016807	6
0	3962	1245.111745088593	1
0	3966	1245.670751320897	2
0	3968	1245.985953103634	5
0	3986	1251.669839275303	3
0	3989	1252.75819647475	1
0	3996	1254.638208471353	0
0	4004	1257.10658726818	1
0	4014	1261.60600751615	2
0	4019	1262.338596683928	2
0	4033	1267.590028405423	1
0	4045	1271.372909013997	1
0	4047	1271.478598750662	4
0	4054	1272.886150415522	2
0	4073	1278.431262339233	3
0	4076	1279.300143929432	0
0	4084	1281.415400650468	2
0	4088	1282.824697324656	1
0	4094	1283.723134838278	5
0	4105	1288.594903693767	1
0	4109	1288.816355236341	2
0	4118	1292.331837704055	0
0	4125	1294.65953163337	6
0	4133	1299.747086661167	5
0	4138	1300.580831423635	3
0	4146	1304.346886706187	4
0	4152	1305.777702882653	1
0	4156	1307.82811195636	2
0	4170	1311.555975623662	1
0	4176	1313.49881124287	0
0	4178	1313.606862886458	3
0	4188	1316.569553573151	4
0	4206	1322.17115603108	1
0	4222	1326.96781133802	1
0	4226	1327.258250365733	5
0	4227	1327.390092747985	0
0	4242	1333.050945628435	4
0	4246	1333.106287529693	2
0	4247	1333.384178905514	1
0	4253	1335.819111566524	0
0	4262	1338.803241426592	5
0	4271	1342.768158991939	0
0	4275	1344.005142491778	1
0	4286	1349.489962937079	1
0	4301	1354.791678810261	2
0	4315	1359.92651355616	3
0	4324	1363.568270483403	4
0	4332	1365.722053447973	5
0	4334	1366.859106836958	0
0	4345	1371.0098296206	4
0	4358	1376.289972963279	1
0	4359	1376.898020740367	3
0	4365	1379.348786783521	4
0	4371	1380.7453482484	0
0	4375	1381.373831621606	5
0	4377	1381.883075971739	4
0	4387	1386.572710588344	4
0	4400	1392.390347925483	1
0	4419	1398.378109982007	5
0	4433	1403.599907067141	5
0	4439	1405.502472185764	4
0	4446	1407.996945661495	4
0	4450	1408.843716014412	1
0	4459	1411.318289455844	3
0	4471	1414.317343643403	2
0	4487	1418.803563913097	3
0	4497	1420.24346198491	4
0	4500	1421.296855839089	1
0	4508	1422.995297618093	3
0	4520	1425.79996243911	4
0	4530	1429.87081671949	0
0	4537	1431.192043903285	2
0	4539	1431.392402272558	1
0	4553	1437.116305535195	2
0	4557	1437.911730073862	1
0	4559	1438.362024962207	3
0	4572	1442.719416505659	2
0	4588	1448.063940913185	4
0	4594	1450.117218345757	1
0	4597	1450.857027843133	0
0	4599	1451.411011461631	3
0	4607	1453.781982989052	4
0	4619	1459.214403440013	5
0	4630	1464.556399257855	4
0	4631	1465.215812863549	4
0	4638	1468.142093490689	3
0	4646	1470.524217960892	4
0	4659	1475.975847522497	1
0	4674	1481.371274202132	1
0	4693	1486.800071880921	2
0	4715	1492.391530798284	2
0	4720	1494.105709792343	3
0	4722	1494.144438126126	1
0	4733	1497.118416307147	3
0	4741	1498.376608911903	2
0	4744	1498.84259340505	1
0	4764	1504.156935695793	4
0	4769	1505.685306005415	2
0	4782	1509.418263684727	3
0	4785	1510.167838864373	3
0	4787	1510.244579761408	2
0	4796	1512.849223705478	0
0	4806	1514.756618785441	4
0	4814	1518.657992605471	1
0	4823	1520.705699064305	3
0	4842	1526.516010499561	5
0	4844	1526.753246251723	4
0	4861	1531.874011390378	5
0	4877	1537.476364217933	6
0	4882	1539.493682961564	2
0	4884	1539.554808178453	0
0	4895	1543.467191754143	1
0	4898	1544.908377020965	5
0	4915	1549.424978646684	6
0	4931	1554.468541451731	7
0	4947	1560.162126794691	3
0	4955	1562.67604723049	2
0	4958	1563.738244320961	6
0	4967	1565.791062222329	1
0	4986	1570.843315243606	1
0	4988	1570.962824093062	0
0	4992	1570.970570881153	2
0	5009	1576.168099202216	3
0	5017	1579.291646865432	2
0	5019	1579.476949306432	5
0	5030	1581.5854987395	1
0	5052	1587.108154946706	2
0	5057	1588.415612061974	0
0	5062	1589.387827693371	1
0	5067	1591.812391887422	1
0	5072	1592.449611654506	2
0	5088	1597.850303314627	1
0	5108	1602.97519934387	2
0	5127	1608.68963103951	2
0	5128	1609.239964558387	4
0	5132	1610.237108820703	1
0	5149	1614.278901666403	3
0	5153	1615.810985518502	2
0	5157	1616.805305111689	1
0	5164	1618.333549153868	3
0	5174	1619.880814509466	2
0	5193	1625.294975009048	2
0	5216	1630.98817670159	3
0	5217	1631.161828900109	2
0	5229	1634.516592218774	1
0	5237	1636.402718013618	2
0	5247	1639.00931874185	1
0	5252	1640.282825105237	2
0	5261	1641.443076157011	3
0	5282	1646.516284526093	3
0	5304	1652.139352026163	2
0	5324	1657.397644098848	4
0	5326	1657.934592023493	1
0	5334	1659.804701735728	1
0	5339	1661.22818259231	0
0	5341	1661.91943789309	3
0	5346	1662.507536549354	2
0	5365	1668.500802560709	3
0	5373	1671.793017211715	2
0	5384	1673.767351066693	1
0	5401	1679.091420010549	2
0	5408	1679.722691503353	4
0	5409	1680.75402889657	1
0	5425	1684.990484837209	3
0	5443	1689.618923287497	3
0	5452	1690.762431233888	4
0	5457	1692.100275716278	0
0	5471	1696.657144105527	2
0	5483	1701.589307510408	3
0	5488	1701.958978558657	1
0	5504	1706.740172557768	1
0	5509	1707.471668167272	4
0	5526	1712.244474017884	2
0	5528	1712.561087713929	0
0	5533	1712.740908886771	3
0	5549	1718.060040835058	5
0	5559	1722.326759061891	0
0	5564	1723.19035853236	6
0	5577	1728.22333308449	7
0	5584	1732.607262319416	6
0	5590	1733.994822265813	1
0	5602	1739.006833854131	7
0	5605	1740.113820781932	0
0	5612	1743.484219279962	2
0	5616	1744.05804242636	3
0	5626	1749.328678089659	1
0	5635	1752.759643017204	2
0	5645	1754.544229493243	1
0	5661	1759.637534362493	6
0	5665	1759.730477419216	3
0	5667	1760.650202260584	0
0	5679	1764.450562776529	5
0	5685	1764.929954056628	2
0	5687	1765.701770873391	1
0	5695	1768.493520229007	0
0	5703	1770.114240722498	1
0	5717	1775.41569652874	1
0	5727	1778.378917300381	2
0	5738	1781.218761354917	2
0	5757	1786.580623581891	1
0	5762	1787.184823752147	2
0	5763	1787.959763744145	4
0	5766	1788.415175740842	0
0	5780	1792.520904458825	3
0	5797	1797.659503778209	5
0	5798	1797.731273191173	1
0	5800	1798.613312994827	2
0	5813	1802.745261297568	0
0	5819	1803.454797304933	3
0	5832	1809.153766928473	1
0	5838	1811.849430030676	4
0	5843	1813.46017174283	2
0	5850	1814.517442260868	2
0	5863	1820.093420994585	1
0	5867	1820.162940438603	5
0	5883	1825.280926963313	6
0	5899	1830.816028430591	1
0	5916	1836.534844997571	2
0	5934	1841.828097437042	7
0	5935	1841.904088973417	1
0	5941	1843.000191960949	0
0	5944	1843.53698481491	1
0	5948	1844.602916468982	6
0	5952	1845.740543887485	0
0	5959	1847.582973031094	1
0	5970	1852.021151341844	0
0	5978	1853.420297013595	7
0	5991	1858.991457024123	1
0	6008	1864.725573619361	1
0	6016	1867.811590673517	0
0	6026	1869.923564524389	2
0	6027	1869.996549147648	6
0	6043	1875.253195716766	3
0	6056	1880.507850862573	1
0	6064	1882.233754128799	2
0	6080	1885.552878483431	2
0	6099	1891.077763787005	3
0	6108	1894.036656744429	0
0	6112	1894.378021394367	5
0	6122	1897.027909095865	6
0	6124	1898.002863754985	2
0	6126	1898.21274997224	1
0	6140	1902.554575973656	1
0	6147	1904.503278997027	5
0	6149	1904.544524518423	0
0	6157	1907.335149416236	1
0	6162	1908.15649247542	2
0	6177	1913.445418982766	2
0	6190	1918.575803046929	1
0	6194	1918.625758161069	3
0	6209	1924.387050894088	4
0	6225	1930.125256363069	5
0	6240	1935.556811087066	1
0	6246	1936.902183590804	4
0	6259	1941.138224118857	4
0	6263	1941.162265307735	5
0	6272	1944.470953396289	0
0	6279	1946.110372307244	3
0	6284	1946.554720814572	6
0	6291	1949.059743195888	2
0	6302	1951.862871852936	7
0	6312	1955.005061667061	1
0	6319	1957.223124064738	2
0	6328	1960.145161167832	1
0	6330	1961.090571148207	6
0	6338	1962.905362051213	1
0	6339	1963.386672324617	0
0	6356	1968.388816987863	2
0	6371	1973.432685303269	1
0	6387	1978.104752202169	0
0	6394	1978.918148746016	7
0	6400	1980.982653886775	1
0	6402	1981.214328236533	6
0	6414	1984.711595651694	2
0	6426	1988.341749086628	1
0	6435	1990.381902260241	1
0	6455	1995.991976225517	7
0	6463	1998.651241375595	0
0	6476	2001.913583548741	2
0	6484	2005.103820698105	1
0	6487	2005.668624867923	6
0	6491	2006.706572380498	0
0	6496	2007.262934992091	2
0	6508	2012.620891644853	3
0	6522	2018.154113813304	1
0	6536	2023.647462133086	7
0	6551	2028.913542441792	4
0	6563	2033.708084423797	6
0	6566	2033.952179926215	3
0	6571	2034.46838463354	2
0	6585	2039.730040825904	7
0	6586	2039.890056501725	2
0	6592	2042.133689782234	1
0	6596	2043.453734606854	1
0	6606	2045.635799880373	2
0	6620	2050.820229783307	0
0	6624	2051.091712726979	3
0	6635	2056.69764368143	4
0	6641	2059.259527388963	6
0	6649	2061.765094380826	1
0	6665	2067.311151320813	2
0	6670	2068.662230980931	3
0	6678	2072.24481591466	1
0	6683	2072.95480776974	4
0	6700	2078.070172942709	1
0	6703	2078.8361439663	5
0	6719	2083.729589639696	0
0	6723	2083.965704457834	6
0	6725	2084.606122117955	3
0	6729	2085.770012420951	0
0	6739	2089.140129468171	4
0	6746	2093.158406560308	3
0	6752	2094.918496154482	1
0	6766	2099.958018740872	4
0	6775	2103.613628005726	0
0	6782	2105.502621480962	1
0	6787	2107.761652847288	5
0	6792	2109.558617669854	3
0	6800	2111.48930597445	1
0	6806	2113.272644239131	4
0	6821	2116.821372427512	2
0	6844	2122.40112505015	4
0	6865	2128.003906996921	2
0	6867	2128.293217988336	1
0	6869	2128.309668015342	3
0	6877	2130.827197137289	1
0	6890	2133.377507581376	4
0	6893	2133.83289218042	0
0	6900	2136.044663145322	3
0	6910	2139.129974813899	5
0	6923	2143.504670805646	2
0	6929	2144.787269617897	3
0	6946	2150.13868433144	6
0	6948	2151.436201746812	5
0	6956	2154.462861759705	0
0	6962	2155.238975286251	4
0	6965	2156.841137642393	4
0	6975	2161.082439983497	5
0	6985	2167.052085728034	4
0	6989	2167.060887250817	5
0	7002	2172.950426154072	6
0	7009	2177.323161791782	3
0	7016	2178.950019040611	7
0	7027	2184.853237969336	4
0	7039	2190.620863032761	5
0	7043	2192.91142169119	4
0	7053	2196.253932782683	8
0	7055	2197.072931939849	7
0	7066	2201.458598182538	1
0	7074	2205.197471737286	3
0	7081	2207.040707418929	2
0	7094	2212.617661564845	4
0	7098	2214.182126722063	6
0	7111	2217.85033389507	1
0	7135	2223.628905175022	7
0	7139	2224.585502432424	6
0	7145	2225.64904189122	3
0	7150	2226.933910211669	1
0	7155	2227.851296485988	0
0	7162	2229.189653545386	7
0	7163	2229.374739740624	6
0	7176	2234.551872457965	2
0	7180	2234.708243303235	1
0	7200	2240.432227605257	3
0	7220	2245.661339876476	2
0	7239	2250.827661965742	7
0	7241	2251.036373574519	6
0	7245	2252.348918790814	0
0	7257	2255.94696307229	1
0	7259	2256.423329092678	5
0	7277	2261.295479789377	4
0	7284	2263.251974659044	3
0	7286	2263.501872357447	1
0	7301	2266.849519995973	6
0	7304	2268.067461351282	0
0	7316	2272.048991997028	2
0	7324	2274.616481220697	5
0	7336	2277.760854661931	3
0	7352	2283.128168878845	4
0	7358	2285.437403829069	3
0	7364	2287.785469856933	2
0	7370	2288.941563636531	3
0	7385	2293.97619392071	4
0	7401	2299.214079138358	6
0	7418	2304.832992424491	4
0	7420	2305.583126942395	5
0	7430	2309.069830483414	3
0	7435	2310.500345672715	1
0	7454	2315.746507796227	4
0	7456	2315.870227986482	3
0	7477	2320.98352188035	2
0	7482	2323.32014719851	2
0	7498	2326.883175996832	3
0	7518	2332.524784125855	4
0	7519	2333.039731135245	4
0	7521	2333.489238542738	1
0	7540	2337.762638127666	5
0	7544	2338.453865776772	3
0	7547	2339.115438633838	4
0	7554	2340.997446913628	3
0	7564	2342.963870909998	2
0	7582	2348.630589541635	2
0	7586	2348.693349118579	5
0	7596	2352.045254765311	1
0	7607	2354.501713814216	6
0	7626	2360.202093901348	4
0	7627	2360.447750236491	5
0	7638	2362.842549757335	4
0	7642	2364.039615970223	3
0	7651	2365.992031235716	2
0	7657	2367.479220651903	1
0	7664	2369.378635223029	1
0	7668	2370.196021471526	3
0	7677	2371.480839096012	2
0	7699	2376.992048366463	3
0	7718	2382.137170336211	4
0	7731	2385.647458565423	3
0	7740	2387.362120950829	2
0	7759	2392.679114642787	3
0	7765	2394.225787515642	2
0	7769	2395.109108650708	2
0	7781	2398.499230301474	4
0	7783	2398.752748774138	3
0	7795	2402.726297542342	1
0	7805	2404.36893280875	4
0	7806	2404.454925298581	2
0	7821	2408.937325755487	3
0	7828	2410.238584078849	3
0	7835	2412.168369245604	0
0	7848	2416.162716592197	4
0	7849	2416.278157137458	3
0	7866	2421.769495717018	3
0	7878	2426.080640649423	2
0	7886	2427.528356766329	3
0	7894	2430.755996208875	2
0	7903	2432.713720769855	4
0	7911	2436.050232447688	2
0	7920	2438.369524523849	1
0	7934	2443.22800021619	1
0	7938	2443.385892706924	2
0	7945	2445.498247163609	1
0	7947	2445.67999343283	1
0	7956	2448.539333066909	0
0	7962	2449.169241169468	5
0	7965	2450.366072734353	4
0	7977	2454.960071037524	1
0	7998	2460.479171156418	2
0	8004	2461.910048884807	1
0	8019	2466.27301056567	0
0	8023	2466.304982341128	1
0	8024	2466.783972288018	3
0	8035	2470.099875822665	0
0	8044	2471.803232247942	4
0	8046	2472.870956813801	0
0	8058	2477.376656399342	1
0	8074	2483.345455223695	2
0	8078	2484.745684156894	0
0	8087	2488.616293980042	5
0	8093	2491.939033735195	1
0	8095	2492.433350548034	4
0	8103	2494.599299404072	5
0	8113	2499.664010596695	1
0	8114	2499.757127963125	4
0	8130	2505.163954992779	2
0	8134	2506.632605089807	1
0	8136	2506.764349100296	0
0	8141	2508.525654983824	3
0	8147	2510.189051687019	2
0	8159	2515.836082853144	4
0	8168	2520.84353148588	1
0	8174	2523.144204638201	1
0	8184	2526.020034234971	2
0	8193	2529.428468407133	0
0	8201	2531.685701596784	5
0	8212	2537.280372390291	1
0	8218	2539.581547811512	4
0	8228	2542.593887709314	2
0	8242	2547.852906689979	3
0	8254	2552.384605037982	3
0	8259	2552.933279423276	4
0	8266	2554.92365517083	2
0	8278	2558.466540305875	3
0	8294	2564.392681537196	5
0	8309	2569.422661655117	3
0	8319	2573.980200352494	2
0	8325	2575.164738526102	4
0	8335	2578.748278344633	4
0	8341	2580.505970757917	3
0	8346	2580.847834258107	3
0	8358	2585.694889230535	2
0	8365	2586.6654493378	1
0	8372	2589.092328484634	1
0	8385	2592.572627256391	4
0	8388	2593.503383207365	3
0	8407	2597.957492911955	5
0	8421	2602.877838889137	4
0	8427	2603.916208270704	5
0	8436	2606.022255204965	0
0	8448	2609.076157884905	1
0	8449	2609.288869999117	0
0	8458	2612.28935897967	2
0	8468	2614.883469586726	3
0	8473	2617.614399063166	2
0	8484	2620.781190066365	1
0	8490	2622.774200213724	0
0	8501	2626.719442475819	3
0	8517	2631.923257771646	4
0	8521	2633.688416266232	4
0	8527	2635.361998961773	0
0	8529	2635.897725844637	3
0	8536	2637.613168102456	1
0	8540	2640.101854835521	3
0	8547	2642.526684397483	2
0	8552	2643.488437039545	4
0	8567	2648.72133280267	1
0	8580	2652.951642756697	3
0	8586	2654.07854796364	2
0	8607	2659.489653771278	3
0	8609	2660.020517249941	2
0	8617	2661.593809292302	0
0	8630	2665.035594509682	3
0	8633	2665.822539762945	2
0	8650	2670.789216220379	3
0	8659	2674.547871257411	2
0	8668	2676.776974844514	1
0	8680	2680.130519450407	2
0	8684	2680.845818768488	1
0	8690	2681.897164974595	3
0	8696	2683.491276676537	2
0	8715	2687.820540888235	3
0	8720	2689.506889022073	0
0	8734	2693.805754198926	3
0	8740	2696.178270273147	2
0	8751	2699.341538770823	4
0	8768	2705.285422106041	2
0	8770	2706.167184417255	1
0	8785	2710.713266009698	3
0	8788	2712.319490837632	2
0	8791	2712.570611463158	3
0	8800	2715.899007756263	4
0	8814	2721.148764973041	2
0	8816	2722.248919194566	1
0	8832	2727.026633097558	5
0	8848	2732.977446273668	1
0	8868	2738.934933647514	3
0	8873	2740.620142366619	2
0	8875	2740.748798560001	0
0	8878	2740.920597306798	4
0	8887	2744.34088481986	3
0	8903	2750.301423229976	2
0	8917	2755.757057666313	3
0	8919	2756.638829027071	2
0	8932	2761.407984602731	3
0	8937	2764.108434434865	2
0	8944	2765.828872721289	3
0	8952	2767.362402820727	3
0	8968	2773.021659278078	4
0	8969	2773.11148641689	2
0	8971	2773.923522353052	3
0	8973	2774.253575342356	1
0	8975	2774.454875185273	2
0	8984	2778.244045649069	2
0	8988	2778.291095003253	3
0	9006	2783.967281919671	3
0	9008	2784.679690882451	2
0	9014	2786.127754916783	2
0	9016	2786.825395544056	1
0	9026	2789.898202013457	1
0	9045	2795.599204479717	2
0	9049	2796.667678675968	1
0	9052	2797.728276020033	1
0	9057	2798.780767549876	0
0	9064	2800.599330555994	0
0	9069	2801.121290200157	1
0	9081	2806.414638712536	2
0	9089	2809.452440284077	1
0	9098	2812.352884667692	2
0	9106	2815.183445076813	0
0	9114	2817.484387382631	2
0	9125	2822.548500102944	3
0	9130	2825.156031120687	1
0	9138	2828.062654732726	1
0	9144	2831.160407413032	2
0	9149	2833.317615791227	0
0	9154	2833.807621777756	1
0	9172	2839.330339814769	2
0	9184	2843.635339675353	1
0	9191	2844.707058133092	3
0	9201	2848.674349916748	0
0	9207	2850.284497415181	2
0	9208	2850.747691878349	1
0	9214	2853.126336923686	2
0	9220	2855.669760925229	1
0	9237	2861.632117126602	1
0	9257	2866.633317088009	2
0	9263	2868.523793483388	1
0	9281	2872.629460023715	3
0	9289	2875.280469249468	2
0	9295	2876.928357144936	0
0	9300	2877.719793620053	1
0	9302	2878.033321738826	0
0	9314	2882.395619677261	0
0	9319	2883.497589970473	3
0	9324	2886.989135446957	2
0	9331	2888.931067096069	1
0	9347	2894.856027972651	2
0	9358	2899.107103350223	0
0	9364	2900.15412524552	1
0	9380	2905.551880031358	3
0	9397	2911.123661551158	3
0	9410	2916.240249186521	2
0	9415	2917.112759448354	1
0	9417	2917.412227402788	2
0	9432	2921.628572423011	1
0	9437	2922.282480145804	2
0	9443	2923.636844159105	1
0	9460	2928.047308857201	1
0	9464	2928.111138121923	2
0	9486	2933.748055688105	2
0	9498	2937.127464265681	1
0	9500	2937.372437457904	1
0	9507	2938.782851574476	2
0	9515	2940.695473094122	1
0	9528	2943.924763821996	2
0	9543	2947.79367243801	0
0	9547	2948.205723944237	0
0	9554	2949.552827770123	1
0	9566	2953.733205205178	0
0	9572	2954.917966290377	1
0	9579	2957.17480998137	1
0	9590	2960.806130699813	1
0	9609	2966.355324768694	2
0	9632	2971.745795282069	3
0	9644	2975.411825652349	2
0	9647	2976.458907472085	0
0	9650	2976.756973986513	0
0	9654	2976.791696002008	3
0	9657	2977.753732682438	0
0	9661	2980.221200742408	2
0	9667	2982.202894853195	1
0	9677	2987.63966391352	1
0	9690	2992.277634881088	0
0	9694	2992.654762403341	1
0	9709	2998.453234104207	1
0	9712	2998.722101319464	0
0	9727	3003.886009778828	3
0	9729	3004.450939494767	2
0	9737	3006.921612745386	0
0	9744	3009.46445701737	1
0	9749	3012.144524166709	0
0	9757	3014.504573372892	2
0	9769	3020.119722433855	3
0	9781	3025.638184182813	4
0	9788	3030.42471392441	3
0	9794	3031.449954536978	1
0	9804	3035.546441819521	1
0	9811	3037.361109883526	2
0	9826	3042.876398837661	3
0	9836	3047.294539320049	2
0	9841	3048.021088307958	4
0	9855	3053.758850338172	5
0	9873	3059.42276203586	2
0	9878	3061.91653763794	1
0	9884	3063.05582608166	1