version 3
run General-3-20240428-16:41:49-11296
attr configname General
attr datetime 20240428-16:41:49
attr datetimef 20240428-164149
attr experiment General
attr inifile omnetpp.ini
attr iterationvars $0=true
attr iterationvarsd true
attr iterationvarsf true-
attr measurement $0=true
attr network Supermarket
attr processid 11296
attr repetition 3
attr replication #3
attr resultdir results
attr runnumber 3
attr seedset 3
config network Supermarket
config repeat 10
config seed-set 3
config num-rngs 10
config **.use_random_strategy true

vector 0 Supermarket queueSizeOverTime:vector ETV
attr recordingmode vector
attr source updateQueue
attr title queueSizeOverTime
vector 1 Supermarket customerWaitingTime:vector ETV
attr interpolationmode none
attr recordingmode vector
attr source customerFinished
attr title "cust waiting time"
0	7	5.6441435304	1
0	14	11.024892021436	1
0	19	14.637792991009	0
0	25	16.624962836504	1
0	35	21.801979694981	1
0	39	23.217309577508	0
0	48	26.997750952607	2
0	59	32.174592731753	3
0	63	34.670028347406	2
0	71	37.201217096764	3
0	84	42.587369181681	1
0	86	43.032119032346	0
0	97	47.660610068123	4
0	110	52.748692743014	2
0	115	55.937764965931	3
0	122	58.563062327215	1
0	136	64.175364485941	1
0	154	68.932729079971	1
0	160	69.499398311599	2
0	170	72.574637848537	2
0	180	74.887106536654	2
0	184	75.663065791596	0
0	202	80.754692750982	3
0	218	86.233914302661	3
0	221	87.087942168583	2
0	237	91.385520594892	4
0	251	96.654950481838	5
0	256	98.171875853095	4
0	258	98.45257600909	1
0	272	102.557996795278	3
0	288	107.58842210518	5
0	292	109.802757319064	2
0	304	113.218895691445	2
0	319	118.249962420201	1
0	342	123.719470056471	6
0	348	125.810425576168	1
0	362	129.533182976766	7
0	369	131.701850035115	6
0	381	134.728384501998	3
0	382	134.945980640592	0
0	392	137.721427692686	2
0	403	140.583901337812	2
0	420	145.929715342352	3
0	422	146.750640907322	1
0	437	151.452467152614	1
0	446	154.476508317867	5
0	457	156.634061290415	6
0	476	161.802987535249	4
0	494	166.58168710163	3
0	499	167.505008478181	2
0	500	167.875336038645	1
0	519	173.027442642252	4
0	523	174.308714855696	5
0	530	175.829166683135	0
0	541	178.397617142645	1
0	561	183.844067358177	5
0	573	187.153397470711	0
0	575	187.55099902244	4
0	582	189.741878181228	5
0	586	190.898311755389	4
0	596	194.568165188889	3
0	600	195.561421590855	1
0	603	196.204952948379	4
0	612	198.023491692148	2
0	616	199.007001899763	0
0	624	200.872582817914	5
0	641	206.003779029006	2
0	648	208.999105430672	1
0	651	210.141567790533	4
0	657	211.662123748798	2
0	661	212.826850973301	1
0	676	217.630914497653	2
0	684	220.668903000422	3
0	693	223.237447615478	3
0	701	225.921225634637	2
0	703	226.173282469039	1
0	713	228.388520554172	1
0	720	231.088388372562	1
0	732	233.897510199806	2
0	741	236.59193467407	0
0	744	237.285668078692	1
0	747	238.774429163783	2
0	753	239.44563307287	1
0	772	244.721202668499	3
0	783	248.350546506697	0
0	793	250.221326603552	4
0	799	252.091716665075	0
0	809	255.621191803131	1
0	813	256.905732338431	0
0	824	261.603515308581	2
0	826	262.10411290056	1
0	831	264.960554406515	3
0	839	267.528623156015	1
0	844	268.977644993109	0
0	851	271.964442376515	2
0	855	272.586482805431	3
0	867	278.313122737918	2
0	870	279.597784107902	2
0	880	283.818600825265	3
0	884	286.002671673663	1
0	886	286.977771186039	0
0	892	289.807996068148	4
0	901	295.702146318507	1
0	904	297.608651293325	3
0	913	301.2275851781	1
0	928	306.896466429344	1
0	948	312.46941710438	0
0	952	312.733902914215	2
0	962	316.13510165759	1
0	970	318.15261222259	1
0	979	320.265855114441	2
0	986	322.234785609645	0
0	992	323.217998960985	2
0	1008	327.365773108902	1
0	1015	328.443773671517	2
0	1029	333.840853705302	2
0	1035	335.965471504136	1
0	1037	336.678626999257	1
0	1042	338.264477880322	1
0	1047	339.347967960637	2
0	1059	343.125610871121	1
0	1068	344.925608306656	1
0	1077	347.653903939644	0
0	1088	350.478373252785	2
0	1095	353.248382174526	0
0	1097	354.309523999456	1
0	1104	355.95694169984	1
0	1109	358.931476973577	0
0	1118	361.250738155095	2
0	1121	362.115489309534	0
0	1129	366.906873295082	3
0	1135	372.251206056561	2
0	1139	372.809977540279	1
0	1152	378.105190917149	2
0	1162	383.83632120746	3
0	1174	389.654287853975	3
0	1177	391.840727743341	2
0	1186	395.28159526456	1
0	1187	395.359169105416	2
0	1203	400.331563223385	1
0	1213	403.410512831178	1
0	1225	406.258838890585	2
0	1235	409.363083970267	0
0	1242	411.483225283447	0
0	1246	411.701108512468	3
0	1257	416.965979611268	1
0	1273	422.436975553166	3
0	1276	424.107521884142	2
0	1285	427.695947344882	2
0	1289	427.811645286623	3
0	1304	433.281214778777	2
0	1315	437.891740113847	1
0	1321	439.218879362801	2
0	1327	440.964555387268	2
0	1338	444.973229506053	3
0	1339	445.016603266005	1
0	1355	450.683582238853	4
0	1371	456.147425516741	3
0	1382	460.824498897071	2
0	1387	461.312490929383	5
0	1396	464.686603785957	4
0	1404	467.052581894211	3
0	1419	472.816408105194	1
0	1430	476.015038358281	2
0	1433	476.629643448394	0
0	1441	478.725052143679	1
0	1453	482.031025250442	1
0	1465	484.454928381833	2
0	1481	489.549578646544	3
0	1486	490.073897134511	3
0	1492	491.3728448099	0
0	1495	492.702215283174	2
0	1505	495.915586098794	3
0	1518	500.565009460317	2
0	1523	501.021163724594	4
0	1531	504.260973130001	3
0	1534	505.186882599138	2
0	1537	506.400356816358	1
0	1541	506.746430094818	2
0	1544	507.498683160053	0
0	1557	512.400731794767	3
0	1559	513.227875917217	1
0	1569	518.11996065662	1
0	1586	523.845123759003	2
0	1603	529.011416301129	3
0	1606	530.20447863708	2
0	1617	534.063205076961	0
0	1622	534.481091373831	4
0	1629	538.512608362359	3
0	1635	540.383581181753	1
0	1649	545.411961705189	3
0	1651	546.054525378274	0
0	1663	551.016505479345	4
0	1668	553.947760786509	3
0	1675	556.264363399472	1
0	1692	562.085545932872	4
0	1701	565.510137515257	3
0	1710	567.69730071374	4
0	1726	573.311709902713	5
0	1744	579.29028461105	4
0	1748	580.940521135691	4
0	1750	581.090227331963	3
0	1761	584.519233257974	5
0	1767	587.530571362467	0
0	1776	589.828334050019	1
0	1788	594.567896916644	4
0	1792	594.861933981766	1
0	1798	596.82015695935	0
0	1809	600.685308713697	2
0	1813	600.686585699906	3
0	1826	605.810795868048	5
0	1831	607.804768318307	4
0	1842	611.204611810157	5
0	1856	616.426435211208	4
0	1870	621.848080292344	5
0	1878	624.810892591952	4
0	1887	627.626582548255	1
0	1888	627.770468791134	0
0	1891	628.677385000275	4
0	1907	632.895057043759	1
0	1927	638.745199929224	5
0	1946	644.651170456316	2
0	1957	647.481441060778	0
0	1968	649.975294065196	6
0	1974	652.889665208643	3
0	1982	655.227008196525	7
0	1990	658.079564949378	6
0	2001	660.855188605841	3
0	2003	661.517424493096	2
0	2013	665.236671391871	5
0	2018	666.131399281556	6
0	2034	672.041031738976	7
0	2049	677.315848005936	1
0	2067	682.375987569569	8
0	2070	682.747767392078	1
0	2074	683.400316875662	0
0	2078	685.125419296326	2
0	2087	687.809657763224	3
0	2095	690.065517292005	7
0	2105	692.813910337165	1
0	2127	698.531587165082	4
0	2137	702.679999767452	0
0	2144	704.462656249059	2
0	2151	707.133398699809	3
0	2163	710.398678556084	1
0	2164	710.484210373131	6
0	2180	714.538532083621	1
0	2189	716.353346104035	2
0	2209	721.665259476751	3
0	2230	727.271291332785	7
0	2249	732.912816846278	4
0	2253	733.689915915602	2
0	2260	735.5091007658	6
0	2266	737.546195357339	0
0	2274	738.759833139135	1
0	2279	740.191442747137	3
0	2297	743.813647856238	7
0	2304	745.802521734147	1
0	2318	749.704287835863	2
0	2325	751.38556743576	1
0	2344	755.670562526677	2
0	2345	755.906409548241	6
0	2362	760.516868241482	2
0	2369	761.352103549754	3
0	2386	766.450946563156	2
0	2390	767.113065277687	5
0	2394	767.85038296564	1
0	2408	771.548728984082	4
0	2416	773.976411407924	1
0	2427	776.784775444073	2
0	2430	777.514898228809	0
0	2447	782.398977169999	3
0	2449	783.414623392625	4
0	2462	787.525209762621	1
0	2463	788.251611776185	3
0	2467	789.000139702806	2
0	2482	792.706888095009	3
0	2493	796.148218093318	3
0	2504	797.960905400802	4
0	2527	803.800835891858	2
0	2537	806.955425750232	2
0	2547	809.417114735579	3
0	2552	810.110089099615	1
0	2554	810.23779893794	3
0	2572	815.22546023689	2
0	2586	819.740895682016	2
0	2590	820.986916293854	2
0	2594	821.19896963029	3
0	2611	826.477876809657	3
0	2612	826.622419887452	2
0	2631	831.824030356009	2
0	2635	832.015649966661	4
0	2643	834.425210500135	1
0	2656	837.560179624705	2
0	2677	843.258865929207	3
0	2680	843.547820691012	1
0	2682	843.903728612002	3
0	2697	848.573590875013	0
0	2703	849.078707372302	3
0	2711	852.035878248515	2
0	2720	854.500528407747	4
0	2721	854.634387839233	2
0	2741	860.402712660141	3
0	2748	863.15397184214	3
0	2758	865.614571403943	4
0	2765	868.229117228645	2
0	2776	871.043490188893	3
0	2785	874.777679093998	2
0	2792	876.263563764745	3
0	2807	881.949999926377	4
0	2814	884.462438893619	3
0	2817	884.709195396044	1
0	2825	887.555932385612	4
0	2843	893.074746958211	1
0	2865	899.061749465762	5
0	2867	899.498428294668	4
0	2886	904.642049388027	2
0	2892	906.241116930148	3
0	2897	907.467168405649	0
0	2908	910.004306538494	5
0	2910	911.016234094509	4
0	2916	913.491092194919	2
0	2924	915.290350613881	3
0	2930	917.126834878463	3
0	2940	920.361579875109	2
0	2944	920.39901818102	4
0	2959	925.4130548425	3
0	2977	930.956595918162	3
0	2981	932.501537134056	2
0	2983	932.526660395781	2
0	2985	933.073227707294	3
0	2995	936.082878683226	1
0	3015	941.320909759493	4
0	3021	943.11597290239	0
0	3035	947.090151847803	1
0	3046	951.033331417356	1
0	3053	952.340916086218	2
0	3073	957.98543648305	2
0	3085	961.973966933667	3
0	3089	962.818693777195	1
0	3096	963.94025673065	4
0	3097	964.419389710412	1
0	3117	969.815921228841	2
0	3124	971.774803003409	3
0	3141	975.730201920956	2
0	3163	981.346707364307	1
0	3167	981.726032176749	3
0	3177	984.298183694365	1
0	3185	986.695298665319	0
0	3187	986.785463980744	2
0	3193	987.677199447523	3
0	3195	988.69869098905	2
0	3206	993.265593070417	0
0	3210	993.386039806525	1
0	3223	998.448287456757	4
0	3229	1000.42908026848	0
0	3234	1002.718056829759	1
0	3238	1003.48188684694	1
0	3251	1008.560494567961	2
0	3260	1012.269363009133	3
0	3268	1014.161093122554	4
0	3286	1019.52925111935	2
0	3300	1024.851428244491	3
0	3302	1025.646500499335	1
0	3316	1029.923704636278	5
0	3323	1032.64337210508	2
0	3326	1033.386394300846	0
0	3332	1035.319493919373	6
0	3333	1035.782494820068	5
0	3344	1040.58489938755	1
0	3359	1046.577507042554	2
0	3375	1051.643120706775	1
0	3381	1053.951617303999	4
0	3387	1055.061487190771	1
0	3399	1057.546750196484	2
0	3400	1057.873295147083	1
0	3420	1062.705301110395	2
0	3424	1063.597400616851	1
0	3431	1065.661932442682	1
0	3440	1068.274039304811	0
0	3444	1068.427868774156	2
0	3453	1071.965396832786	3
0	3461	1073.750877701673	3
0	3477	1079.002013696353	1
0	3482	1081.074235054892	2
0	3499	1084.703171939584	4
0	3509	1087.523603228034	0
0	3513	1089.053179321109	3
0	3519	1090.271908492543	3
0	3535	1096.052265417291	1
0	3548	1099.780704817845	2
0	3553	1101.058894504322	0
0	3557	1101.290551234497	3
0	3567	1105.341305496515	0
0	3574	1107.243322933087	4
0	3577	1108.518837339471	2
0	3587	1113.124807311915	5
0	3589	1113.879302335783	4
0	3591	1114.65304366126	1
0	3601	1118.997411204264	5
0	3613	1124.443016950502	2
0	3626	1129.846294775833	1
0	3631	1132.191269541273	4
0	3643	1135.562205372839	3
0	3647	1136.803251191619	2
0	3660	1141.092730681873	2
0	3676	1146.277075185902	5
0	3691	1151.698577585393	3
0	3701	1155.533723611262	1
0	3703	1155.673382225674	4
0	3708	1156.7658465011	1
0	3728	1162.371977272672	2
0	3740	1166.191168385202	2
0	3742	1166.818273262231	1
0	3748	1167.586039925223	0
0	3752	1168.02158444677	2
0	3763	1171.798081519193	1
0	3771	1173.924925869559	3
0	3781	1177.607722510229	0
0	3788	1179.260246400717	4
0	3800	1184.854192612223	1
0	3807	1188.339086852844	3
0	3813	1189.870393468761	1
0	3826	1194.016533813318	3
0	3828	1194.412763755648	0
0	3834	1195.19734348007	4
0	3836	1195.507793582154	2
0	3850	1200.454056114652	1
0	3858	1202.991031353939	0
0	3871	1205.929432198168	5
0	3875	1207.78781728807	0
0	3878	1208.473417564407	1
0	3887	1211.658527239221	1
0	3903	1217.235693409103	2
0	3908	1218.9224664123	4
0	3922	1223.082678952948	5
0	3938	1228.484791213176	2
0	3940	1228.677685708035	1
0	3957	1234.397952087917	2
0	3967	1238.495697355941	1
0	3974	1240.284582006274	3
0	3980	1242.761634731544	2
0	3986	1244.983102665629	4
0	3991	1245.317978973728	3
0	4005	1250.454477905291	1
0	4018	1253.789811360529	2
0	4026	1255.551199630829	2
0	4028	1255.705114207574	0
0	4043	1260.742781249335	1
0	4049	1262.130409638625	1
0	4051	1262.370509151132	3
0	4057	1264.908715902357	0
0	4065	1266.551474704867	2
0	4071	1269.477949805319	1
0	4080	1271.662295261858	3
0	4083	1272.59743809653	2
0	4091	1275.086729187745	0
0	4098	1276.953215872165	3
0	4109	1282.407935956255	4
0	4119	1286.588544683642	2
0	4125	1287.742187238992	1
0	4131	1291.134118289681	0
0	4139	1293.709497319064	3
0	4150	1299.484691033368	1
0	4158	1302.290147036076	3
0	4160	1303.130330451178	2
0	4167	1304.643801030698	2
0	4177	1308.63809531496	1
0	4185	1310.591367811891	3
0	4189	1312.186540047634	2
0	4196	1314.304535055413	1
0	4205	1316.376004223008	2
0	4220	1322.167411993951	1
0	4237	1327.616573471338	2
0	4240	1328.301856939795	2
0	4248	1330.623819637808	1
0	4260	1333.510763418623	3
0	4268	1336.788955371357	0
0	4278	1339.065310525237	1
0	4296	1344.538251932705	2
0	4304	1346.437290448456	1
0	4320	1350.099617606489	3
0	4327	1352.944873749275	2
0	4330	1353.469939278782	0
0	4339	1356.054504706984	2
0	4352	1360.47873408545	1
0	4357	1361.134257489577	2
0	4372	1367.015517954476	3
0	4384	1370.437792768696	2
0	4390	1372.301254564777	2
0	4395	1372.980626880418	3
0	4399	1374.643922316952	1
0	4403	1375.811951160545	2
0	4415	1378.568753799883	3
0	4422	1380.909082104448	2
0	4432	1383.619357863435	3
0	4438	1386.327191942717	1
0	4449	1388.795421996381	2
0	4466	1394.509921432234	3
0	4475	1398.732535901239	0
0	4481	1400.297962074861	1
0	4486	1402.000641435267	2
0	4497	1405.341532257613	1
0	4519	1411.166945837666	2
0	4527	1413.498171124719	0
0	4533	1415.278952809047	2
0	4543	1417.126063262108	3
0	4552	1421.230889847153	2
0	4560	1422.991270916532	1
0	4571	1426.853233413884	1
0	4579	1428.017807977037	2
0	4584	1429.187705772115	1
0	4596	1432.32024905691	0
0	4603	1433.81508955848	3
0	4606	1434.530350351471	1
0	4615	1438.400077136811	2
0	4620	1439.745785503179	1
0	4639	1445.144687028018	0
0	4645	1445.717488354534	3
0	4660	1451.536343015028	2
0	4669	1455.086021721125	2
0	4676	1456.857113511065	3
0	4691	1462.034641714763	2
0	4693	1462.535353594105	1
0	4700	1465.250655190201	1
0	4709	1467.797551099906	2
0	4711	1468.10680205177	2
0	4726	1473.319606721165	1
0	4740	1477.811301098317	0
0	4746	1478.665010186142	1
0	4769	1484.61908679688	2
0	4775	1486.060846207544	1
0	4785	1488.990697503088	0
0	4790	1489.785009487063	3
0	4798	1493.516805646474	1
0	4801	1493.930879117688	2
0	4808	1495.532527621832	2
0	4825	1501.522017679639	3
0	4845	1507.291288330216	3
0	4850	1509.545859200647	0
0	4860	1512.458958063504	4
0	4866	1516.829689174305	3
0	4870	1517.998335464393	2
0	4874	1518.065177409673	1
0	4875	1519.004203361227	1
0	4893	1523.906717082947	2
0	4895	1524.491448470505	2
0	4911	1529.332923003235	2
0	4915	1531.290624300834	1
0	4922	1533.609119270228	1
0	4929	1534.336857021782	2
0	4943	1539.979421157851	3
0	4945	1540.132368716995	2
0	4961	1545.836833150587	1
0	4968	1548.598020380128	0
0	4972	1549.283766752802	1
0	4974	1550.196242075416	1
0	4980	1551.157998474776	2
0	4995	1557.013249705308	3
0	4996	1557.495693797597	0
0	5009	1562.076761290426	2
0	5011	1562.993828200265	2
0	5014	1564.463544093881	1
0	5022	1567.829697131873	3
0	5031	1573.252488781811	2
0	5036	1573.444054805902	2
0	5047	1578.766802100926	3
0	5054	1583.026828837577	1
0	5060	1584.6505818041	1
0	5076	1590.275686186269	2
0	5080	1591.755988518468	2
0	5087	1594.315171762132	1
0	5094	1596.080049671229	2
0	5110	1601.53672863403	2
0	5111	1601.805111058287	1
0	5129	1606.885030621194	3
0	5147	1612.836532022102	3
0	5150	1614.230269722167	2
0	5157	1616.93434565793	1
0	5159	1616.935093441508	2
0	5164	1617.898477445353	2
0	5169	1620.560628426026	0
0	5172	1622.356480728132	1
0	5177	1623.411909947168	3
0	5188	1628.828563318817	2
0	5200	1634.703321040139	1
0	5211	1639.567051362127	0
0	5215	1639.724243681409	3
0	5226	1644.842122056751	4
0	5229	1647.367072401214	3
0	5233	1649.067762799204	2
0	5239	1650.685612643134	1
0	5240	1651.299023510182	1
0	5255	1656.550635342948	1
0	5275	1662.080823073625	2
0	5278	1663.09959812916	1
0	5297	1668.058558932967	4
0	5301	1668.853943503227	0
0	5316	1673.540904146848	5
0	5321	1675.351015130403	4
0	5333	1678.839291422624	2
0	5342	1682.219842032637	1
0	5351	1684.626040441446	2
0	5366	1690.200049917443	5
0	5379	1696.078106472032	3
0	5381	1696.400618145587	0
0	5390	1700.881942236086	2
0	5395	1701.197707889132	1
0	5400	1704.061560908214	4
0	5409	1706.301034356696	3
0	5425	1711.736981907855	1
0	5444	1717.007597014304	5
0	5457	1721.126568651629	2
0	5467	1722.908720688192	2
0	5470	1723.400335711772	0
0	5476	1726.162887078472	1
0	5484	1728.166495509907	3
0	5489	1729.81915057695	4
0	5502	1733.566904335278	1
0	5522	1739.073786450778	4
0	5525	1740.343397629213	3
0	5529	1740.761976097473	0
0	5531	1741.564832600181	2
0	5540	1744.606010671467	5
0	5560	1750.088403217722	6
0	5562	1750.696973502401	1
0	5568	1753.727744083264	0
0	5571	1754.575494489273	5
0	5576	1755.763904241141	1
0	5589	1760.867871520337	2
0	5590	1761.064581112817	0
0	5603	1766.673984762742	6
0	5605	1767.730131558367	5
0	5616	1772.218054442662	1
0	5629	1777.522350449576	1
0	5633	1778.145340674552	2
0	5641	1781.530927494858	4
0	5652	1783.953130868957	5
0	5659	1786.578281046005	1
0	5663	1787.844118524573	0
0	5669	1789.326516254567	2
0	5672	1790.808812364813	1
0	5676	1793.344805249239	0
0	5681	1794.911331315054	1
0	5694	1800.69309014128	6
0	5705	1805.742270543002	1
0	5717	1809.941538043543	5
0	5719	1810.608067216696	0
0	5723	1811.308446289268	6
0	5736	1816.59845277294	2
0	5746	1821.671315045324	1
0	5760	1826.757555814222	3
0	5767	1829.270472699539	2
0	5771	1830.505187173254	0
0	5776	1831.963414015709	3
0	5784	1836.825150657673	2
0	5788	1836.999450759026	1
0	5795	1839.777276205127	1
0	5800	1841.810036263066	5
0	5804	1842.311420310284	6
0	5819	1847.876723221033	1
0	5840	1853.703257190292	2
0	5844	1855.224137485139	0
0	5859	1858.814700793238	2
0	5874	1864.570496787546	3
0	5875	1864.621340764672	5
0	5879	1866.463692807345	4
0	5881	1866.531360312476	2
0	5893	1870.466526871078	3
0	5896	1871.142335073901	1
0	5912	1875.493018181525	5
0	5918	1877.704283241876	2
0	5920	1878.130843974286	4
0	5933	1881.155517517585	1
0	5936	1882.000350198703	0
0	5939	1882.830368369571	3
0	5953	1886.256184941154	1
0	5975	1892.09953280957	2
0	5980	1893.186263303503	0
0	5982	1893.273479920915	2
0	5989	1895.71040499209	1
0	5998	1897.738578075539	3
0	6002	1899.285518191634	1
0	6007	1900.605874152503	2
0	6013	1902.022492878707	0
0	6020	1903.396289130669	3
0	6030	1908.531831714554	4
0	6043	1914.005613475336	5
0	6044	1914.283011733668	0
0	6048	1919.009209859533	4
0	6052	1919.524481329598	1
0	6064	1924.767840947487	2
0	6072	1929.69914578844	1
0	6076	1929.862701760369	5
0	6088	1934.944607614769	2
0	6098	1940.026625627183	1
0	6103	1941.81752598949	1
0	6105	1942.336840267873	0
0	6113	1945.054761325239	1
0	6115	1945.492420296766	4
0	6127	1950.333574494344	1
0	6144	1955.104005394849	0
0	6150	1956.214285513616	2
0	6170	1962.136087132848	2
0	6183	1967.6754474577	1
0	6187	1968.08381847874	5
0	6188	1968.3179818053	4
0	6203	1973.23197150626	3
0	6204	1974.505672414899	2
0	6218	1978.785206229657	2
0	6235	1984.600972157668	3
0	6237	1984.804698603924	3
0	6252	1990.117424668044	1
0	6271	1995.673956708981	2
0	6274	1996.400197125503	1
0	6277	1997.620224835349	2
0	6287	2000.685306041032	1
0	6289	2000.976508507382	2
0	6296	2001.66751240217	3
0	6316	2007.139846011297	3
0	6335	2013.007612160173	4
0	6336	2013.227473896925	2
0	6342	2014.694966096074	3
0	6349	2016.198367764356	0
0	6358	2018.391556523972	1
0	6379	2024.111492660361	2
0	6388	2027.196544440344	1
0	6402	2029.839448005193	2
0	6403	2029.985837608106	1
0	6419	2034.516516545904	0
0	6421	2034.988911664806	0
0	6423	2035.1258031869	2
0	6427	2035.736566523089	3
0	6431	2038.164392808561	1
0	6436	2040.215626309269	0
0	6440	2040.794059326406	4
0	6443	2044.014652456036	3
0	6449	2046.625478539848	4
0	6456	2051.992036422015	1
0	6469	2057.447153729153	1
0	6485	2062.676766418618	1
0	6493	2065.947615921491	3
0	6506	2068.291758012957	2
0	6518	2072.547978287208	2
0	6525	2073.928322665858	2
0	6532	2075.505828454622	1
0	6535	2076.272119899279	0
0	6546	2079.621221010805	3
0	6549	2081.323949649811	0
0	6551	2081.588933791499	2
0	6553	2081.768792740065	1
0	6561	2085.34339782223	2
0	6571	2090.720374238443	3
0	6577	2094.460795340822	2
0	6581	2095.797755598089	3
0	6584	2097.291843758779	2
0	6597	2101.03514341032	3
0	6603	2104.752769494079	2
0	6609	2106.389234990812	1
0	6612	2107.678306089011	1
0	6621	2110.288865433536	0
0	6627	2111.81125229923	2
0	6634	2114.492227598791	1
0	6641	2117.233097522519	2
0	6647	2120.354208651579	1
0	6649	2121.395153210731	1
0	6655	2122.775410452624	2
0	6668	2128.625027254223	2
0	6674	2131.874639089917	1
0	6682	2134.069455883465	1
0	6696	2139.816576386568	2
0	6711	2145.467845589154	3
0	6718	2147.917327818575	2
0	6729	2150.958706522592	2
0	6733	2152.019654485281	1
0	6745	2156.039202388375	2
0	6754	2159.835837046618	1
0	6764	2161.781073051271	3
0	6766	2163.13408098812	2
0	6785	2167.776721847475	3
0	6800	2173.107169030466	4
0	6804	2174.433049786717	3
0	6815	2178.650548123055	4
0	6820	2180.396159969267	1
0	6823	2180.699263981428	0
0	6832	2184.234862250042	5
0	6837	2186.812548739134	4
0	6844	2189.863488982777	3
0	6848	2189.964516021077	1
0	6864	2195.176138371228	2
0	6879	2200.32869876013	2
0	6881	2200.653424294081	1
0	6898	2206.166553666581	2
0	6914	2211.200814007082	4
0	6921	2213.612235731908	3
0	6930	2216.577425923198	3
0	6931	2216.600783014552	2
0	6938	2219.231419248622	1
0	6946	2222.002842006506	2
0	6966	2227.167655312223	1
0	6978	2231.031181942904	1
0	6987	2232.454637151211	2
0	6988	2232.461554392823	2
0	7008	2238.058166569564	2
0	7027	2243.774832929717	3
0	7028	2244.013380604562	1
0	7030	2244.015207610441	1
0	7046	2249.152474190922	1
0	7051	2249.223606555024	4
0	7071	2254.869198012398	2
0	7081	2257.748363554127	0
0	7091	2260.408906090073	3
0	7092	2260.649664107475	2
0	7097	2262.405035160715	3
0	7109	2265.738093794789	4
0	7125	2271.7141699153	2
0	7134	2275.331712145358	1
0	7138	2276.63734934642	3
0	7141	2276.962961886193	1
0	7145	2277.356498112437	1
0	7162	2282.379036436789	2
0	7184	2288.234143923503	3
0	7202	2293.350964585436	0
0	7206	2293.841602852103	4
0	7207	2293.84347453597	2
0	7209	2293.942368635443	0
0	7214	2295.957101732259	1
0	7221	2299.02158248541	2
0	7228	2302.080624538474	3
0	7235	2304.890584275127	1
0	7240	2306.766351487838	1
0	7253	2310.310309573776	4
0	7266	2315.709518575575	3
0	7270	2316.131771209883	2
0	7286	2321.139412835474	1
0	7306	2326.456044776133	4
0	7319	2330.072813751176	1
0	7324	2331.782234234735	0
0	7328	2331.953021923546	2
0	7334	2334.278670865229	1
0	7339	2336.374174167634	3
0	7346	2337.854692064226	2
0	7349	2338.826369171613	1
0	7360	2342.881461433485	0
0	7364	2343.150791928638	1
0	7374	2346.298399237684	2
0	7384	2349.111282627797	2
0	7398	2354.526724379045	1
0	7400	2354.64660107787	1
0	7404	2355.036224978278	2
0	7408	2355.85024307587	0
0	7420	2360.906406207011	2
0	7431	2365.958533028142	1
0	7443	2370.881601497181	1
0	7449	2371.590384539451	2
0	7463	2376.981209884632	1
0	7468	2377.405919526938	2
0	7471	2378.093447533205	0
0	7478	2381.607471581082	1
0	7483	2383.088218624239	2
0	7494	2388.557002675488	1
0	7499	2390.844392798609	0
0	7510	2394.039530518466	3
0	7522	2399.314076989658	1
0	7526	2401.384745813559	2
0	7532	2404.653186966781	1
0	7537	2404.949166499313	3
0	7554	2410.782510698775	2
0	7570	2415.926593198909	4
0	7584	2421.074034630556	3
0	7587	2422.13274670672	2
0	7594	2424.286771667304	0
0	7603	2426.758692232196	3
0	7605	2427.169580672169	3
0	7616	2432.365600678374	4
0	7629	2437.963788344295	5
0	7632	2439.567034450127	4
0	7641	2443.660812079677	1
0	7654	2449.070466383947	2
0	7659	2449.539810425372	1
0	7667	2451.85876644962	1
0	7676	2454.266974897357	3
0	7680	2454.664199977418	2
0	7682	2455.352741715619	0
0	7696	2459.939854597443	4
0	7713	2465.617116195618	5
0	7722	2468.651391732742	1
0	7729	2470.896746437766	2
0	7733	2472.568671338492	4
0	7739	2474.590537460759	1
0	7747	2476.553125951787	3
0	7751	2476.895441687901	1
0	7768	2482.236336028908	0
0	7772	2482.507520228859	2
0	7787	2487.78468186781	4
0	7806	2493.619778814727	1
0	7816	2496.503103839119	0
0	7829	2499.465484421702	5
0	7844	2505.410360091368	1
0	7849	2506.653616113703	4
0	7854	2507.669041344316	0
0	7859	2508.896526644357	1
0	7867	2511.260191110431	2
0	7881	2516.730097172552	1
0	7895	2521.388382831354	1
0	7902	2522.607401148186	2
0	7912	2525.867032487641	3
0	7920	2527.403427482813	2
0	7927	2528.182760557395	3
0	7932	2529.56648998393	1
0	7947	2533.217320610539	2
0	7954	2535.094684287557	0
0	7961	2536.550454836574	2
0	7969	2538.28165155533	2
0	7976	2541.702636418513	1
0	7978	2542.183249998719	1
0	7983	2543.456791362612	1
0	7987	2543.598892788871	1
0	8008	2549.569788714641	2
0	8015	2551.216755325787	0
0	8029	2555.272527836732	3
0	8045	2561.108236138246	4
0	8048	2562.168520349774	0
0	8061	2566.784159785372	1
0	8076	2571.914397156101	2
0	8083	2574.375901721654	3
0	8089	2576.594452655527	0
0	8094	2577.623813759771	3
0	8104	2582.763070525371	1
0	8105	2582.911554574154	2
0	8122	2588.176888779274	1
0	8143	2593.619316538566	3
0	8152	2596.354068413264	0
0	8155	2597.342478464712	2
0	8163	2599.39481478534	2
0	8168	2601.157814240784	2
0	8176	2603.080897344398	1
0	8183	2604.563351553868	2
0	8198	2609.7555288123	3
0	8202	2610.97727083869	1
0	8215	2615.018295126738	4
0	8220	2616.039689183704	1
0	8233	2620.471828985963	5
0	8238	2622.517223043489	4
0	8252	2625.995193815095	2
0	8270	2631.96071036952	5
0	8286	2637.486089894552	3
0	8291	2639.562788855168	2
0	8293	2639.587865947748	0
0	8302	2642.770887693161	6
0	8303	2642.807242313987	5
0	8307	2644.929940363392	1
0	8315	2647.964811415182	1
0	8333	2653.529994135959	2
0	8336	2654.774769298384	1
0	8350	2658.792221470274	2
0	8354	2660.097725885804	1
0	8366	2664.573849749522	6
0	8383	2670.058416225718	1
0	8390	2672.29341271357	0
0	8394	2672.739308248162	5
0	8399	2674.339271162407	0
0	8403	2675.443799734817	2
0	8414	2681.226934603884	3
0	8426	2686.842639132406	1
0	8439	2692.026283862072	2
0	8444	2693.471102990211	2
0	8455	2697.597385781354	3
0	8472	2703.567832362608	4
0	8475	2704.18078661047	4
0	8489	2709.292747945993	5
0	8497	2712.912759690781	4
0	8506	2714.631533236711	5
0	8507	2715.343861057079	3
0	8511	2716.871359920715	1
0	8523	2719.908805508868	4
0	8535	2724.669362324645	3
0	8540	2725.502125958915	1
0	8559	2730.94658266567	2
0	8579	2736.537334485448	6
0	8585	2737.922248629272	5
0	8588	2738.0436704621	0
0	8602	2742.297678667356	3
0	8608	2744.364662799174	2
0	8620	2747.69509362127	6
0	8623	2749.21471357986	5
0	8631	2752.714156384468	2
0	8635	2752.930706952702	1
0	8647	2757.503372017997	1
0	8652	2758.016378528675	2
0	8674	2763.912542722192	3
0	8694	2769.623681181115	3
0	8696	2770.059482062236	4
0	8698	2770.633008879729	0
0	8701	2771.394015234199	2
0	8714	2775.284665076765	5
0	8716	2775.463446235056	2
0	8722	2777.870557249292	4
0	8729	2779.871921318586	1
0	8734	2780.685533185028	2
0	8742	2784.172057004529	3
0	8750	2785.939432329502	3
0	8753	2786.759285099458	1
0	8767	2791.208918534456	4
0	8775	2793.425317016901	3
0	8786	2796.474025029926	4
0	8788	2797.286691663908	3
0	8801	2802.008675213209	2
0	8816	2807.383586731278	1
0	8821	2808.699083771676	1
0	8841	2813.182390689389	2
0	8842	2814.340057393533	2
0	8858	2818.727583851437	2
0	8866	2820.773212359639	2
0	8878	2824.081228437365	1
0	8883	2824.419009152572	3
0	8895	2828.085271183405	2
0	8903	2829.669179847469	2
0	8915	2833.179795459733	1
0	8924	2835.200386339571	3
0	8931	2836.60985145858	1
0	8940	2839.852621318545	0
0	8945	2840.336336016893	2
0	8950	2841.996738561201	1
0	8956	2842.99120048538	1
0	8964	2845.726956855511	4
0	8982	2850.77698443947	5
0	8983	2851.03591007274	4
0	9002	2856.583077494061	2
0	9019	2862.510240899405	3
0	9020	2862.629264062509	2
0	9026	2864.191736001402	0
0	9032	2866.24146056548	3
0	9038	2868.431884113938	1
0	9040	2868.946746086355	2
0	9048	2871.815349661749	1
0	9056	2873.799605302286	1
0	9074	2879.198276170536	3
0	9090	2884.620902098021	2
0	9097	2885.1923856102	2
0	9117	2890.997634621111	2
0	9121	2891.908584581459	0
0	9129	2894.913234269835	1
0	9136	2896.164214237367	3
0	9139	2897.232415890208	2
0	9150	2901.280479169108	0
0	9155	2902.05196081219	1
0	9156	2902.715559260228	1
0	9171	2907.2956580401	3
0	9186	2912.353687672417	2
0	9187	2912.77042940702	1
0	9204	2917.535289646599	2
0	9218	2923.060252089759	3
0	9220	2923.683723683939	2
0	9236	2928.773303984206	4
0	9249	2934.232590808308	5
0	9252	2934.586425192077	4
0	9259	2937.10958817008	3
0	9263	2938.173842448164	1
0	9270	2939.919703283122	4
0	9285	2945.030380330289	1
0	9287	2945.918807851856	0
0	9293	2947.641292232676	0
0	9302	2950.766469007598	5
0	9304	2952.074871261259	4
0	9307	2952.974922506961	0
0	9313	2956.07773576305	1
0	9324	2961.101972127806	2
0	9333	2965.884958423681	1
0	9337	2966.124073951047	2
0	9343	2970.192683014211	1
0	9350	2971.971992037499	5
0	9357	2975.651549948616	4
0	9364	2977.395293558024	1
0	9379	2982.636522307301	2
0	9387	2986.107034909546	0
0	9391	2987.376883836699	3
0	9396	2987.808327305837	1
0	9413	2993.701778492898	4
0	9421	2995.857033564597	1
0	9432	2999.218477844501	5
0	9442	3003.612602370449	0
0	9446	3004.378816820223	2
0	9458	3009.555704248378	1
0	9470	3014.690725092895	4
0	9472	3014.850791540587	0
0	9476	3014.937133818639	5
0	9482	3018.991755692527	1
0	9484	3019.142935233426	4
0	9489	3020.424891751034	1
0	9494	3022.404350805218	0
0	9505	3025.729074005743	5
0	9515	3030.864441008547	6
0	9529	3036.565527603736	1
0	9537	3040.098003163472	5
0	9545	3041.984593813548	2
0	9546	3042.180311038981	1
0	9551	3044.033342024785	0
0	9560	3047.418456918568	6
0	9567	3051.376654330067	0
0	9572	3052.856305779199	7
0	9579	3058.703064767419	1
0	9580	3059.046739660905	6