version 3
run General-1-20240428-16:41:48-11296
attr configname General
attr datetime 20240428-16:41:48
attr datetimef 20240428-164148
attr experiment General
attr inifile omnetpp.ini
attr iterationvars $0=true
attr iterationvarsd true
attr iterationvarsf true-
attr measurement $0=true
attr network Supermarket
attr processid 11296
attr repetition 1
attr replication #1
attr resultdir results
attr runnumber 1
attr seedset 1
config network Supermarket
config repeat 10
config seed-set 1
config num-rngs 10
config **.use_random_strategy true

vector 0 Supermarket queueSizeOverTime:vector ETV
attr recordingmode vector
attr source updateQueue
attr title queueSizeOverTime
vector 1 Supermarket customerWaitingTime:vector ETV
attr interpolationmode none
attr recordingmode vector
attr source customerFinished
attr title "cust waiting time"
0	7	5.771320643136	1
0	13	11.265910571441	1
0	18	13.94913876953	0
0	25	16.291082305135	1
0	37	22.244475648971	1
0	54	27.971911159809	1
0	69	32.673385357367	0
0	75	33.037474427604	2
0	83	35.942091436591	1
0	93	38.890517421531	2
0	97	40.829648659331	0
0	100	41.456180284381	0
0	106	44.186479124705	1
0	116	49.279939503408	2
0	120	52.035545495804	1
0	126	54.307629913325	1
0	130	54.636189832584	2
0	144	60.008709782035	1
0	160	65.223662978037	2
0	178	70.574621202889	3
0	184	72.693012153496	2
0	194	75.574893730925	3
0	202	78.2823059276	2
0	206	79.503509766072	0
0	212	81.069942360743	1
0	227	86.407200544373	3
0	232	88.072966048378	1
0	241	90.480807658751	0
0	247	91.897755223791	4
0	250	92.942493644893	0
0	253	94.883906974345	3
0	259	97.263120193266	1
0	269	102.501452909083	1
0	282	107.550080914515	2
0	299	113.116830842801	2
0	300	113.308092374591	2
0	307	116.441427990211	1
0	318	118.82568066893	3
0	336	124.660559800452	2
0	351	130.219459333688	1
0	357	131.907924323929	1
0	361	133.18173054047	2
0	364	133.331529638851	0
0	368	134.989449004178	1
0	375	136.002174154853	1
0	376	136.227883525889	0
0	386	140.22589981358	1
0	388	140.432352185599	0
0	394	141.486195048082	1
0	409	146.602924554373	1
0	417	148.581110615632	0
0	420	150.170437942372	0
0	427	152.198918482984	1
0	437	156.919430200007	0
0	443	157.582949256056	1
0	449	160.252521468091	0
0	459	162.627209372117	1
0	464	164.544005251254	0
0	467	165.056555155314	0
0	473	167.696242712901	1
0	485	173.099712556924	1
0	490	174.824880571917	0
0	494	176.44322739355	0
0	500	178.707881507694	1
0	513	184.109649845629	1
0	529	189.650356533003	2
0	540	194.349959618991	0
0	545	195.277918388366	2
0	555	200.541321554219	3
0	566	205.73457528115	1
0	567	206.015780423882	2
0	582	210.927941732339	1
0	590	213.265872142158	1
0	601	215.930312724316	2
0	621	221.335692013612	2
0	641	226.392320212441	3
0	646	227.593332620568	1
0	654	230.024637641731	0
0	656	230.298322843502	0
0	658	231.187742925477	1
0	663	231.524290875763	2
0	666	234.12590496626	2
0	674	236.88124115602	1
0	684	240.929494703186	1
0	691	242.582171559565	1
0	712	248.183611935469	3
0	728	253.432001075706	0
0	734	253.809755605411	1
0	737	255.278882507814	2
0	758	259.652494101783	2
0	759	259.930014778511	0
0	774	264.739622462772	1
0	794	270.30613946053	2
0	797	271.108531057019	0
0	807	274.822649383914	1
0	809	274.985296570229	1
0	814	275.369939187772	3
0	818	277.257781048537	2
0	833	281.208430951459	1
0	842	284.212930857086	0
0	851	286.461610097203	1
0	873	292.130465276304	3
0	894	297.380889207355	2
0	902	300.535416789468	2
0	907	302.295856421463	1
0	912	302.884463950291	2
0	919	304.664553269739	0
0	924	306.101552997365	0
0	930	308.172609535044	1
0	945	313.674355533438	3
0	957	318.042240731183	2
0	964	319.319844193988	1
0	969	320.662357986437	1
0	985	324.719259591772	2
0	998	328.213537762292	1
0	1003	329.181213637229	0
0	1010	330.508448382838	2
0	1013	332.35851277236	1
0	1023	335.825956349957	0
0	1028	336.199532329802	3
0	1033	339.344987777296	2
0	1042	342.082362953106	2
0	1049	345.794415662881	1
0	1051	346.386562281289	0
0	1056	347.561911650233	3
0	1059	351.503902106775	2
0	1063	352.763041347031	3
0	1070	357.843883752356	4
0	1076	362.860793563769	1
0	1087	368.261670245555	1
0	1094	371.269628452603	0
0	1102	374.103168210712	1
0	1111	377.009171393349	0
0	1115	378.386248980063	3
0	1121	379.742797363548	1
0	1130	383.566451557559	2
0	1134	384.368664142675	0
0	1138	384.917456872061	1
0	1150	388.622399710814	1
0	1156	390.010304512454	2
0	1169	395.208721938774	1
0	1193	400.875948264727	2
0	1199	402.754527612471	0
0	1201	403.006206442718	1
0	1210	406.475287782259	1
0	1214	406.524158198617	2
0	1231	411.716024966675	1
0	1252	416.942385103085	2
0	1261	419.441543255931	1
0	1274	422.867067711658	3
0	1275	422.963022007953	0
0	1279	423.832386098218	2
0	1293	428.392609521046	2
0	1310	433.841134109765	1
0	1317	435.610623866784	1
0	1328	438.948646454371	2
0	1338	441.574374551882	1
0	1340	441.913340874711	0
0	1344	443.071493737631	0
0	1349	444.665685084646	2
0	1362	449.811133682725	3
0	1365	450.961992063324	2
0	1376	455.601208545032	3
0	1388	460.904575749531	1
0	1402	466.277851132907	3
0	1419	472.165330266578	4
0	1420	472.194215514346	2
0	1430	475.831725731722	3
0	1438	477.832929535068	2
0	1443	479.7611022467	1
0	1456	483.808633272534	1
0	1474	489.410100370411	4
0	1483	491.792038211363	3
0	1486	492.260656283119	1
0	1501	495.295414644059	2
0	1504	496.204432704833	0
0	1515	500.123309522747	0
0	1519	500.374576566739	1
0	1530	503.966910006012	0
0	1536	505.817007531177	1
0	1537	506.157618951167	1
0	1553	511.037588356759	2
0	1567	516.852790277682	2
0	1570	517.25568741164	2
0	1585	522.752068517029	3
0	1601	528.23396853497	4
0	1616	533.69590969756	3
0	1619	535.117197717771	2
0	1626	537.731520516212	1
0	1633	539.628970077026	1
0	1655	545.272184629922	5
0	1667	549.707484542971	0
0	1669	549.754938739234	4
0	1675	550.976485056334	3
0	1687	555.071635773636	3
0	1692	556.049311575011	4
0	1702	560.759813609763	0
0	1708	561.40460325102	1
0	1713	563.227713480122	3
0	1717	564.901662927701	2
0	1722	566.075479893708	2
0	1728	567.327272701772	2
0	1732	568.681128345425	1
0	1737	570.180627060234	0
0	1745	572.479896573812	1
0	1759	577.750309751831	3
0	1775	582.803046522891	1
0	1779	583.987695538898	2
0	1795	588.271927815858	3
0	1813	593.395151	4
0	1816	593.861788084727	0
0	1819	594.978280303763	0
0	1822	595.639673483323	1
0	1831	599.23098882264	1
0	1846	605.191376266996	2
0	1849	606.174663067903	3
0	1863	610.590152149084	4
0	1880	616.374901716127	5
0	1888	619.561949784519	0
0	1890	619.820045442547	1
0	1894	621.856693591447	4
0	1898	622.101309039858	2
0	1909	627.316394837801	1
0	1918	631.287870922934	1
0	1926	633.274232056685	5
0	1942	639.200613777613	2
0	1944	640.328388664163	4
0	1954	644.344127519517	0
0	1960	645.161013834173	1
0	1978	650.714100250038	3
0	1987	655.305877645844	0
0	1992	655.814608054696	1
0	2000	658.701606718818	0
0	2009	661.674612982426	4
0	2013	664.026701431251	3
0	2022	667.435577863356	1
0	2027	669.223775171898	3
0	2030	669.923722469126	0
0	2040	672.916811586119	1
0	2048	676.216414609682	2
0	2054	677.971272586839	3
0	2072	683.131639807014	4
0	2079	685.229257371384	3
0	2088	688.280714212213	2
0	2092	688.821587797016	4
0	2105	693.85556973074	3
0	2110	695.473140586744	0
0	2119	698.867483122269	1
0	2126	701.570080092519	2
0	2137	704.024321808707	1
0	2147	707.382303476096	0
0	2156	709.387405873271	1
0	2159	710.675013274643	3
0	2163	711.981099057005	0
0	2174	714.523046673503	1
0	2176	715.100848661842	2
0	2181	716.251539544425	1
0	2192	719.527548757604	0
0	2197	719.923867512256	2
0	2210	725.0016564005	3
0	2214	726.212897824118	0
0	2221	729.959076678841	1
0	2226	730.293010334944	1
0	2237	735.247579654207	2
0	2241	735.516489371186	3
0	2248	739.059280142998	0
0	2257	741.510345702752	2
0	2270	746.668902637897	1
0	2286	752.562433008797	1
0	2300	757.179893675255	0
0	2302	757.227821295144	0
0	2307	757.790664215566	3
0	2318	762.946241018822	1
0	2319	763.533114651678	2
0	2322	764.095591646845	2
0	2337	768.173656204011	1
0	2345	770.797932210723	1
0	2352	772.872053724007	1
0	2358	773.755628007691	2
0	2378	778.945501875592	3
0	2388	781.070645889147	0
0	2402	784.576335506275	2
0	2411	788.950342789752	0
0	2413	789.205787373231	1
0	2418	789.615172990592	1
0	2426	793.240430658675	2
0	2433	794.744582883077	2
0	2446	799.840775883751	3
0	2457	804.409034772073	0
0	2463	805.6135327639	3
0	2472	810.774732946878	4
0	2482	815.790543984845	3
0	2487	816.511088198976	4
0	2497	822.045000090258	4
0	2500	823.905271332937	3
0	2507	827.315460294712	1
0	2520	831.865485067817	3
0	2526	832.620484866894	1
0	2543	838.142439219629	4
0	2547	838.985481360688	2
0	2567	843.282367045054	3
0	2587	849.149440891104	5
0	2600	853.218718854468	4
0	2607	854.383526440472	2
0	2608	854.740768256475	0
0	2611	855.115487686	3
0	2624	859.60265777539	3
0	2628	861.315630372258	2
0	2635	863.428421248675	2
0	2644	865.479808027153	3
0	2657	870.953527887347	3
0	2669	876.578720423499	2
0	2673	876.665688454169	1
0	2692	881.828393267696	4
0	2693	882.433440624962	2
0	2703	885.28854528441	1
0	2708	886.31095660081	0
0	2715	887.014888799512	2
0	2718	888.035488053101	1
0	2727	891.298107354195	3
0	2732	892.193889454003	3
0	2733	892.268808634245	0
0	2740	896.178583902534	2
0	2746	897.668676716504	1
0	2765	903.582712060069	4
0	2779	908.77702388749	3
0	2782	909.885094841472	2
0	2793	913.831080017839	0
0	2797	914.358525065235	5
0	2808	919.898680710928	3
0	2819	924.898981194473	4
0	2821	925.403510526164	4
0	2827	928.580335667935	3
0	2833	930.439997745673	4
0	2840	934.053203867744	3
0	2846	936.073491848535	4
0	2851	938.110549745609	3
0	2861	941.097920824769	5
0	2862	942.002712260928	4
0	2874	946.596739741038	5
0	2885	951.863789352351	4
0	2896	956.892092799065	5
0	2901	959.038963520078	4
0	2909	962.030128392387	5
0	2919	967.197288941588	4
0	2923	967.541149449298	5
0	2931	972.078659389977	4
0	2935	973.033870566632	1
0	2950	978.721354421922	1
0	2965	983.261638224702	0
0	2969	984.124349184794	3
0	2973	984.499484245428	4
0	2982	987.671992116485	3
0	2993	990.181841391367	1
0	3015	995.84360357583	6
0	3017	996.829904762909	5
0	3033	1001.082686491538	2
0	3036	1002.331699911851	4
0	3044	1003.733402831592	0
0	3054	1006.725477850758	3
0	3067	1011.838258383325	4
0	3071	1013.742220987097	3
0	3084	1017.535645574326	4
0	3085	1017.823824955144	3
0	3092	1020.362324713259	2
0	3102	1022.817558528384	4
0	3118	1028.305356974242	1
0	3127	1031.074305834824	3
0	3138	1033.798394489329	3
0	3160	1039.621819125948	4
0	3162	1040.344307688297	3
0	3169	1042.506161549706	2
0	3172	1042.716076828417	0
0	3176	1044.030914212919	3
0	3180	1045.143998420558	4
0	3197	1050.178967824665	1
0	3218	1055.371285454369	3
0	3222	1055.603614516783	3
0	3243	1061.293290567113	4
0	3251	1063.225411875284	0
0	3259	1066.309204517747	2
0	3263	1066.74182762857	4
0	3266	1067.766885077105	3
0	3281	1072.27470665378	1
0	3288	1073.547547284856	3
0	3299	1076.086485425936	0
0	3306	1077.518575837598	4
0	3308	1078.25168563099	3
0	3320	1083.0235169992	2
0	3325	1083.393992609572	3
0	3340	1088.605678373011	4
0	3344	1090.285720857901	1
0	3352	1093.2888343971	3
0	3356	1094.005903847976	2
0	3361	1095.466231271504	2
0	3371	1099.064749974752	3
0	3385	1104.612213767594	4
0	3388	1105.803390852055	2
0	3404	1110.396013268264	5
0	3419	1115.950814367499	1
0	3426	1118.078003610244	1
0	3442	1121.490234800609	6
0	3450	1123.738643972663	0
0	3457	1126.314555883058	5
0	3462	1127.470932616381	2
0	3477	1132.488275744714	3
0	3479	1133.498451386573	1
0	3491	1137.630082206795	4
0	3493	1138.284094015946	3
0	3509	1143.156192660326	2
0	3524	1148.284392360126	3
0	3540	1153.736416089109	6
0	3542	1154.020911737459	5
0	3555	1159.59455859451	2
0	3559	1159.670767344761	6
0	3568	1163.002600371369	2
0	3577	1165.090163005277	3
0	3592	1170.418297862861	3
0	3609	1176.051350667601	4
0	3626	1181.781303224846	4
0	3634	1184.986631817062	3
0	3638	1186.444523558599	5
0	3643	1187.035838820034	5
0	3644	1187.48304007982	4
0	3661	1192.52249494823	4
0	3669	1195.576751627955	4
0	3676	1197.881453321542	1
0	3687	1200.955795375624	0
0	3698	1203.602133177913	5
0	3712	1208.617747657228	1
0	3734	1213.920432151057	2
0	3735	1214.145112116936	4
0	3745	1217.184889712832	3
0	3753	1218.636312387882	3
0	3755	1218.939797386288	1
0	3761	1219.510330811138	4
0	3765	1221.075001113579	3
0	3781	1224.889005149244	2
0	3800	1230.856019691326	4
0	3806	1232.638341949318	2
0	3820	1236.837014376646	5
0	3823	1237.831278604337	4
0	3842	1242.682636364358	3
0	3843	1242.873043602093	1
0	3852	1245.714391201382	3
0	3863	1247.702119718068	4
0	3884	1253.373011179962	2
0	3907	1258.637452227291	3
0	3908	1259.204529908711	3
0	3914	1260.551398651668	2
0	3929	1264.544090500329	3
0	3938	1266.865139481026	2
0	3941	1267.643033334518	3
0	3951	1269.934244199185	3
0	3973	1275.21254798327	4
0	3986	1279.665021987857	2
0	3990	1280.222994361064	2
0	3994	1280.296050541796	5
0	3996	1280.878712293689	4
0	3999	1281.481500917228	3
0	4018	1285.777828187676	3
0	4040	1291.306313396659	3
0	4045	1292.443732669219	2
0	4053	1294.86199104122	2
0	4061	1296.391907141771	3
0	4072	1299.562857650561	2
0	4074	1299.777022756401	2
0	4083	1301.884215025225	3
0	4103	1306.912695590168	4
0	4106	1307.469408564028	3
0	4123	1312.238427995	3
0	4144	1317.608567826444	4
0	4159	1322.844762998864	3
0	4165	1323.455833085574	4
0	4168	1323.642705319796	1
0	4173	1325.210389729115	3
0	4187	1328.738552794786	4
0	4200	1332.416351077605	2
0	4209	1333.755820253858	5
0	4228	1339.359668483486	2
0	4238	1341.970540756126	4
0	4246	1344.689672323401	2
0	4253	1345.32463271729	3
0	4258	1346.752088471773	2
0	4272	1350.597040924237	5
0	4282	1353.891594422624	1
0	4286	1354.548948528942	1
0	4294	1355.686186118045	2
0	4305	1359.461548954591	1
0	4312	1360.839513922337	3
0	4325	1365.033988652516	2
0	4328	1365.280192397069	4
0	4333	1366.048053215485	2
0	4337	1367.004506623486	1
0	4356	1371.303280253423	3
0	4368	1375.406852688758	3
0	4378	1377.235398182174	4
0	4379	1377.554350294748	0
0	4385	1379.580280971473	3
0	4397	1382.998675325181	4
0	4414	1388.367059043603	1
0	4423	1391.450548631722	2
0	4434	1393.687648824876	2
0	4448	1398.001501111312	1
0	4455	1398.744478732109	2
0	4474	1403.662806065976	3
0	4478	1403.938822577935	4
0	4494	1408.371055679855	0
0	4496	1408.383762261588	3
0	4504	1409.71962566324	3
0	4515	1414.811456428137	4
0	4523	1417.954978346244	1
0	4531	1420.107919026161	4
0	4532	1420.263770804033	3
0	4546	1425.06693137891	3
0	4551	1425.55318926414	4
0	4568	1430.921600825149	5
0	4586	1436.65898521896	6
0	4596	1440.93265286996	0
0	4603	1442.02575478679	4
0	4611	1447.293440503294	5
0	4613	1447.855464493154	3
0	4617	1447.9417179611	6
0	4629	1453.800536182006	7
0	4634	1457.161738672174	2
0	4641	1458.981704487461	8
0	4653	1464.363464364778	1
0	4656	1465.107106801933	1
0	4661	1466.853401115506	7
0	4667	1468.932020865143	0
0	4673	1469.970585063562	2
0	4684	1475.749000861306	8
0	4695	1480.825278665168	1
0	4708	1486.04955108929	2
0	4716	1488.244825507163	1
0	4728	1491.826143395151	9
0	4745	1497.016885762564	10
0	4747	1498.032556339282	0
0	4750	1498.901647607327	1
0	4752	1499.261620318859	9
0	4761	1502.179479518202	2
0	4771	1507.378417416005	1
0	4786	1512.820373644814	2
0	4794	1515.241289372666	8
0	4805	1518.549486506958	9
0	4813	1520.833117946163	1
0	4824	1523.720932532097	10
0	4840	1529.437790389401	1
0	4844	1529.968593022199	1
0	4861	1534.94828452542	2
0	4862	1535.033291272116	1
0	4871	1537.447232218453	9
0	4877	1539.203155058315	0
0	4885	1540.707341272613	1
0	4890	1542.855225584115	0
0	4892	1543.009929786197	8
0	4903	1545.776949318355	2
0	4919	1551.475497772681	9
0	4936	1557.454818576105	1
0	4938	1558.041860846216	1
0	4943	1559.066738301185	0
0	4949	1560.461773207638	8
0	4957	1562.742922322821	2
0	4975	1568.28508671722	1
0	4978	1569.137820559898	0
0	4982	1570.101473456129	0
0	4992	1573.579902165566	3
0	5004	1578.903599412876	1
0	5021	1584.779507116412	4
0	5022	1584.839964801438	3
0	5025	1585.010214460308	7
0	5040	1589.857106617416	1
0	5047	1592.342225867316	6
0	5059	1594.905543684956	2
0	5075	1599.246584279695	1
0	5083	1600.677597933911	2
0	5103	1606.519082835639	3
0	5115	1610.86703202046	2
0	5121	1611.802867071932	2
0	5124	1612.931355879524	1
0	5132	1614.718392916721	0
0	5141	1617.141852724362	3
0	5142	1617.71846397744	5
0	5158	1622.353803034635	4
0	5161	1623.36988753778	2
0	5171	1627.00605767359	4
0	5173	1627.677566190251	3
0	5177	1627.943280541567	3
0	5178	1627.997828123965	3
0	5187	1632.393801651885	2
0	5191	1633.164283857565	2
0	5195	1633.385240283092	3
0	5206	1638.14426637895	2
0	5208	1638.748410428283	2
0	5212	1639.350904870076	3
0	5218	1641.306859123289	2
0	5229	1645.084291424133	3
0	5247	1650.727655780498	3
0	5257	1654.282907988867	2
0	5267	1656.63611228298	3
0	5277	1661.060149235293	2
0	5282	1661.939676019592	4
0	5297	1667.038775221906	3
0	5305	1670.101256313036	3
0	5313	1672.162035708079	4
0	5314	1672.34411423478	3
0	5323	1675.878396195477	2
0	5330	1677.37013256922	3
0	5346	1683.285399764307	4
0	5355	1686.421188953555	3
0	5367	1689.017554236572	4
0	5382	1694.711639841549	4
0	5384	1694.87469152792	1
0	5388	1696.169859165784	3
0	5400	1700.361822848204	5
0	5406	1702.732704479238	4
0	5420	1705.885773226847	1
0	5432	1709.311092029432	3
0	5445	1711.407716762503	2
0	5463	1717.240445892788	4
0	5471	1719.124261247568	2
0	5484	1722.517285180274	2
0	5491	1725.039233327612	1
0	5504	1727.660216745218	5
0	5508	1728.268598311923	1
0	5511	1729.419852087732	1
0	5528	1733.450866640541	2
0	5548	1739.001721811709	2
0	5555	1741.213175210744	4
0	5573	1744.716322575691	5
0	5586	1749.468745351189	0
0	5588	1749.760134681004	1
0	5592	1749.984865006055	1
0	5595	1751.333446695461	1
0	5605	1753.797544182271	0
0	5613	1755.340680521676	1
0	5632	1760.737867964428	2
0	5635	1761.692389737345	0
0	5651	1766.546728057085	6
0	5653	1767.621119671958	0
0	5663	1771.824237120102	1
0	5664	1771.844283551434	5
0	5674	1775.788093099251	0
0	5677	1776.13872590719	1
0	5682	1776.854573061221	1
0	5693	1781.846979658233	0
0	5697	1782.462775751247	1
0	5705	1785.335544569758	4
0	5714	1787.553374586857	2
0	5729	1792.685066636882	3
0	5746	1798.396669564999	2
0	5749	1799.787934457991	3
0	5764	1803.792227835625	3
0	5769	1805.158367958613	2
0	5782	1809.291109361916	4
0	5795	1814.362713322625	3
0	5799	1814.390426722353	4
0	5815	1820.359931291312	1
0	5828	1824.353167457381	3
0	5836	1825.588019153334	2
0	5839	1826.707666766123	2
0	5845	1827.934297167694	1
0	5853	1830.442216298535	1
0	5859	1831.038661330936	2
0	5874	1836.246628485614	1
0	5880	1836.9752374785	2
0	5885	1837.975382829544	0
0	5887	1838.043975853121	1
0	5892	1839.064477210046	2
0	5904	1842.140573021255	3
0	5909	1844.172919900619	1
0	5921	1847.933158269615	2
0	5936	1853.338941654653	3
0	5937	1853.617520748519	2
0	5940	1854.189239916971	2
0	5953	1858.900620243739	0
0	5957	1858.964027457402	1
0	5972	1864.653844194484	3
0	5991	1870.325765599261	4
0	5999	1873.450509115585	3
0	6004	1875.372157737262	1
0	6010	1876.157117504391	2
0	6026	1882.003549343205	4
0	6037	1887.047156644865	0
0	6043	1887.887881362109	3
0	6050	1892.470249402101	3
0	6055	1893.298377091295	4
0	6059	1895.709119289879	3
0	6068	1899.215085421453	4
0	6069	1899.907706425873	2
0	6080	1904.841592931651	3
0	6094	1910.526512125038	1
0	6100	1913.004053398151	3
0	6105	1914.984105020761	2
0	6110	1915.895711222427	4
0	6115	1917.946210345136	3
0	6120	1920.077707355955	0
0	6126	1921.408105106089	3
0	6138	1926.813838644182	1
0	6153	1932.284845611076	4
0	6172	1938.11711317929	1
0	6184	1941.251932081068	2
0	6188	1941.895389266312	3
0	6195	1943.265473078233	4
0	6214	1948.707394257649	3
0	6216	1949.067062419603	0
0	6233	1954.325727413404	2
0	6239	1956.614697072421	3
0	6250	1959.815996413115	4
0	6251	1959.975508146215	1
0	6268	1965.761336535444	2
0	6285	1970.919917057031	1
0	6292	1973.70079779229	2
0	6299	1975.256080278893	1
0	6303	1975.987617584876	0
0	6306	1976.390128028224	1
0	6310	1976.449501523511	5
0	6321	1980.591836124306	0
0	6327	1982.015672041099	1
0	6329	1982.698781466344	4
0	6340	1986.599602392641	3
0	6346	1987.448101234385	2
0	6362	1992.610112068472	4
0	6365	1994.229899605381	1
0	6372	1996.375058587524	3
0	6380	1998.337972855657	2
0	6397	2003.980634065807	4
0	6412	2009.128541750597	1
0	6414	2009.344958399186	1
0	6422	2011.772461435754	0
0	6426	2012.744413973647	3
0	6432	2014.426236251831	4
0	6447	2019.513030771861	2
0	6458	2023.341999630788	0
0	6464	2024.652136086948	3
0	6471	2028.244717130786	3
0	6477	2030.583378545005	1
0	6490	2035.668344024332	4
0	6498	2038.741215126237	3
0	6508	2041.046775933351	4
0	6524	2046.688761428227	4
0	6533	2050.034521738179	0
0	6535	2050.667384857426	3
0	6541	2052.491612163135	1
0	6550	2055.817361490565	3
0	6557	2057.891833545403	1
0	6571	2062.330768164129	2
0	6576	2063.141821470806	2
0	6581	2064.602249477639	1
0	6584	2065.305312016626	1
0	6598	2068.82227001106	4
0	6599	2068.900502364731	3
0	6620	2074.294575871198	2
0	6628	2076.781846623982	0
0	6636	2079.914016514549	0
0	6640	2079.972558596867	4
0	6645	2083.765532980902	1
0	6651	2084.992338740497	5
0	6660	2090.086271446894	6
0	6669	2095.456137456581	5
0	6673	2095.607624498892	1
0	6686	2100.009654868741	0
0	6692	2100.77520348341	6
0	6701	2105.700263963426	0
0	6705	2106.166180668862	7
0	6710	2111.225060670868	6
0	6714	2111.471892748491	7
0	6721	2116.679851949911	8
0	6730	2122.283555974017	9
0	6738	2127.477438621686	1
0	6749	2133.037965197346	1
0	6754	2135.029070645453	8
0	6767	2138.5714796707	2
0	6781	2143.72275151638	3
0	6795	2148.795423842731	4
0	6799	2150.599639908641	0
0	6804	2152.942748244968	3
0	6810	2154.729078319154	1
0	6824	2160.473517739211	2
0	6835	2163.544196299044	2
0	6843	2166.412372592834	9
0	6844	2166.535201766758	8
0	6862	2171.896853788986	3
0	6866	2173.927633821731	2
0	6876	2177.000889085231	9
0	6885	2180.475406976298	1
0	6892	2182.684844585366	2
0	6902	2186.542347118027	1
0	6909	2187.791741687336	2
0	6913	2189.045322937888	1
0	6927	2193.258318573466	3
0	6942	2198.402395575073	8
0	6947	2199.09764700988	9
0	6953	2201.265259408045	2
0	6956	2202.244056988859	1
0	6966	2204.360492784527	10
0	6981	2210.339626165337	11
0	6996	2215.768788882529	12
0	6998	2217.015879642336	0
0	7001	2217.189799705751	0
0	7008	2221.565567062234	1
0	7009	2221.732207542514	11
0	7022	2227.155568217856	1
0	7031	2230.887817006671	0
0	7038	2233.059436040695	1
0	7055	2238.161350897511	1
0	7061	2241.379175629347	0
0	7064	2241.579807888597	0
0	7073	2243.54008591268	1
0	7082	2247.956399582671	10
0	7088	2248.881570625815	2
0	7089	2249.529523959381	0
0	7094	2251.899339856228	1
0	7101	2254.24204202322	2
0	7113	2259.666917683554	11
0	7125	2265.048076232427	1
0	7139	2270.727589390468	10
0	7143	2270.981324865014	11
0	7148	2272.79279008496	1
0	7161	2276.912964973363	12
0	7173	2281.965560965703	2
0	7182	2285.578172298265	1
0	7192	2287.589146111624	2
0	7193	2288.038596908446	1
0	7196	2288.300086537955	0
0	7204	2292.661570170307	11
0	7208	2293.002778725929	12
0	7220	2298.044267320537	13
0	7225	2300.985374704939	0
0	7231	2303.474322003542	1
0	7240	2309.279039013895	14
0	7254	2315.276524693935	1
0	7268	2320.172483771217	13
0	7274	2320.81194754387	2
0	7289	2326.285966529974	1
0	7294	2327.956362571564	1
0	7304	2330.553795721142	12
0	7311	2331.523410849969	2
0	7322	2334.616659166052	11
0	7331	2336.837341800796	0
0	7336	2337.486240980446	12
0	7339	2338.465292914417	1
0	7353	2343.376954705219	2
0	7361	2346.405416293999	0
0	7369	2349.204581671857	1
0	7373	2351.045226169509	11
0	7386	2354.222125347235	2
0	7396	2357.941988328463	10
0	7398	2358.235926938823	1
0	7406	2360.130622753405	11
0	7422	2365.943718271327	12
0	7426	2367.675140236967	1
0	7430	2368.588524902929	11
0	7440	2371.196052174081	12
0	7453	2376.26865497301	1
0	7465	2380.111817883902	11
0	7474	2381.710483193394	12
0	7483	2384.735056439993	0
0	7494	2387.613997936245	13
0	7495	2387.69437678682	0
0	7507	2393.435915676873	1
0	7519	2397.809612076027	0
0	7526	2399.027928493913	14
0	7532	2402.832976150085	13
0	7539	2404.825045296918	2
0	7546	2408.901733040223	1
0	7548	2409.507619758478	12
0	7554	2410.718100049063	1
0	7570	2416.084363560654	13
0	7579	2419.501073381859	0
0	7585	2421.374308090187	1
0	7594	2424.684997338681	0
0	7600	2426.438820539737	1
0	7601	2426.867025352662	0
0	7613	2432.142413569843	14
0	7621	2436.966591657363	13
0	7626	2437.709447137542	1
0	7642	2443.356484538173	1
0	7654	2446.809539737177	0
0	7664	2448.958235883616	1
0	7666	2449.342745631579	0
0	7669	2449.877075863876	12
0	7681	2454.498923510774	0
0	7685	2454.802792161699	2
0	7698	2460.175024738531	1
0	7711	2465.646136806691	0
0	7715	2465.892387025752	3
0	7719	2467.43406783346	11
0	7730	2471.495663237288	4
0	7739	2476.391428055122	3
0	7744	2477.481995953941	1
0	7758	2482.350618918533	10
0	7763	2482.830928516803	1
0	7780	2487.99871785496	11
0	7794	2491.608876658484	0
0	7801	2493.138821967641	12
0	7816	2498.146841224279	2
0	7833	2503.546737255059	4
0	7835	2503.994526691733	1
0	7843	2507.19311024155	3
0	7851	2508.887795488346	13
0	7857	2510.973989697978	12
0	7868	2514.146197963968	2
0	7885	2519.592538586348	3
0	7897	2523.751410645312	2
0	7902	2525.324977024687	3
0	7906	2526.481892778303	2
0	7919	2530.877066299548	4
0	7923	2532.237162148572	11
0	7925	2532.263243765452	1
0	7938	2536.382475588234	1
0	7946	2538.873709372008	0
0	7948	2538.889651698988	3
0	7956	2542.064377919071	0
0	7961	2542.331194356546	1
0	7977	2547.773962206669	1
0	7997	2552.991580843456	12
0	8001	2554.348250073143	2
0	8007	2556.045180605838	0
0	8014	2558.057717047625	11
0	8019	2558.351526198439	2
0	8029	2562.600900450947	10
0	8035	2563.67484318255	1
0	8049	2567.477303586431	0
0	8057	2569.21766229765	11
0	8061	2571.161316659065	1
0	8067	2572.792579001976	1
0	8075	2575.109023620835	1
0	8094	2580.69963281834	12
0	8096	2581.163658073164	11
0	8102	2582.534381852947	0
0	8106	2583.145906929852	0
0	8114	2585.9086955341	2
0	8123	2591.169356090478	1
0	8139	2596.852639933578	2
0	8140	2597.420587806141	10
0	8145	2598.830369965287	1
0	8160	2602.722596332892	2
0	8161	2602.741832666562	1
0	8168	2605.240375339283	0
0	8172	2607.418009532142	9
0	8177	2608.443647700357	10
0	8188	2614.150808678004	11
0	8196	2618.385006568271	1
0	8202	2619.512902244222	1
0	8216	2624.611705979327	2
0	8219	2625.607349771651	10
0	8228	2628.770606975647	1
0	8236	2629.912004509237	2
0	8249	2634.955998996035	1
0	8268	2639.959692167579	2
0	8287	2644.979544645636	11
0	8296	2647.926271931961	1
0	8302	2649.193445571343	10
0	8304	2649.28675558918	1
0	8308	2650.113562235371	2
0	8331	2655.80293256463	3
0	8338	2658.018866527121	9
0	8349	2660.866953962245	2
0	8354	2661.586773672136	10
0	8359	2662.878748908283	0
0	8361	2663.964199926581	9
0	8365	2665.268366853001	8
0	8374	2667.439261326561	9
0	8392	2673.198043175269	3
0	8398	2675.242349373753	0
0	8407	2678.262313116569	1
0	8408	2678.871538873524	2
0	8422	2683.455426973285	1
0	8428	2685.341842704446	0
0	8440	2688.817562300473	1
0	8456	2694.407546635711	2
0	8459	2694.872677788714	8
0	8462	2695.588772719254	1
0	8464	2695.621970930363	7
0	8466	2696.121699787788	0
0	8469	2696.32583428779	6
0	8480	2699.41144343884	1
0	8487	2701.027593130705	1
0	8496	2703.435955457501	0
0	8503	2704.550432093202	7
0	8520	2710.387578338378	2
0	8537	2716.31830314942	8
0	8541	2717.647155279404	1
0	8546	2718.800385614383	0
0	8549	2719.945757699775	0
0	8554	2721.970611112884	1
0	8563	2727.353232445189	1
0	8564	2727.362175917246	7
0	8579	2732.842094078421	2
0	8594	2737.940175381716	3
0	8603	2740.811494398157	0
0	8611	2743.539878583274	1
0	8627	2748.565163043321	4
0	8632	2750.847120139741	6
0	8644	2754.430545795004	5
0	8646	2754.914281083497	0
0	8657	2759.676854410901	1
0	8662	2761.219615499832	4
0	8673	2764.687298531172	5
0	8676	2766.076049549033	4
0	8689	2769.838087906123	5
0	8697	2772.401944298057	0
0	8705	2775.100498690263	1
0	8707	2775.461161030802	5
0	8722	2780.433020982652	2
0	8738	2785.667117622907	6
0	8739	2785.996903142884	4
0	8741	2786.479195674062	5
0	8750	2789.912694857448	3
0	8756	2791.118933572893	6
0	8774	2797.027455596014	7
0	8788	2802.24485724442	1
0	8794	2803.808373334696	6
0	8797	2804.407029752378	2
0	8805	2806.548279684962	1
0	8814	2807.965599688928	3
0	8834	2813.709110623219	4
0	8835	2813.830039323302	5
0	8856	2819.277950169279	5
0	8859	2820.036320377249	4
0	8876	2824.370131841854	2
0	8879	2825.429883344208	4
0	8885	2827.040012373816	1
0	8896	2829.875528129044	5
0	8909	2833.722497374509	3
0	8915	2834.93623475171	4
0	8924	2837.505534940976	0
0	8935	2840.373151425499	5
0	8940	2842.768522243476	0
0	8952	2846.014739166474	6
0	8954	2847.446189422151	5
0	8958	2849.191487360157	4
0	8966	2851.977378432866	1
0	8978	2857.274322364008	6
0	8995	2862.899391878856	7
0	9010	2868.514551378662	6
0	9015	2868.625234873959	2
0	9020	2870.557287178229	3
0	9031	2874.176964732346	4
0	9048	2879.552672050188	1
0	9054	2881.332544580793	1
0	9068	2885.165988681831	2
0	9081	2888.430392326082	5
0	9092	2890.911088986548	3
0	9105	2893.97655247652	3
0	9117	2896.708834185956	6
0	9139	2901.937284059815	2
0	9147	2903.972557647843	2
0	9151	2905.383912272162	1
0	9161	2907.311248370206	2
0	9178	2912.132489474601	5
0	9182	2912.637511322267	6
0	9202	2918.357219239456	3
0	9206	2919.513096094591	2
0	9209	2920.318874420589	1
0	9213	2921.278841453482	1
0	9223	2923.662894552216	2
0	9227	2923.717892389038	3
0	9228	2923.833523501633	0
0	9245	2929.665673133211	4
0	9262	2935.541336518239	1
0	9266	2936.620730799036	5
0	9272	2938.613943009281	0
0	9282	2940.746587702065	2
0	9289	2943.349439358216	1
0	9293	2944.614081839791	0
0	9296	2944.869723933159	3
0	9298	2945.750461406185	4
0	9303	2946.564094500841	1
0	9322	2952.398671644965	5
0	9326	2953.512181138378	0
0	9332	2956.13795365241	2
0	9339	2958.189885005114	1
0	9354	2964.028504362787	3
0	9367	2969.397374625542	4
0	9369	2969.721759464466	0
0	9376	2973.623507845208	3
0	9380	2974.767010709961	1
0	9388	2978.177295229042	4
0	9395	2980.040719953357	1
0	9412	2985.18915386404	2
0	9420	2987.40521072351	0
0	9432	2990.283506931729	5
0	9449	2995.871488012598	4
0	9459	2999.322780154639	4
0	9469	3001.387295805142	3
0	9482	3006.721656089758	3
0	9486	3006.810648109755	4
0	9487	3007.236537042066	3
0	9490	3007.96859718707	3
0	9506	3012.354464991941	4
0	9523	3018.267855826524	4
0	9540	3024.266183450344	5
0	9547	3026.777090465295	3
0	9558	3030.216866894151	4
0	9565	3033.513799695991	4
0	9575	3035.223666519151	5
0	9578	3036.731934399219	4
0	9592	3040.36918875388	5
0	9594	3040.921206669875	2