version 3
run General-13-20240430-20:30:42-5483
attr configname General
attr datetime 20240430-20:30:42
attr datetimef 20240430-203042
attr experiment General
attr inifile omnetpp.ini
attr iterationvars $0=false
attr iterationvarsd false
attr iterationvarsf false-
attr measurement $0=false
attr network Supermarket
attr processid 5483
attr repetition 3
attr replication #3
attr resultdir results
attr runnumber 13
attr seedset 13
config network Supermarket
config repeat 10
config num-rngs 10
config **.use_random_strategy false

vector 0 Supermarket queueSizeOverTime:vector ETV
attr recordingmode vector
attr source updateQueue
attr title queueSizeOverTime
vector 1 Supermarket customerWaitingTime:vector ETV
attr interpolationmode none
attr recordingmode vector
attr source customerFinished
attr title "cust waiting time"
0	7	5.661328948801	1
0	14	10.972873314283	1
0	25	16.527665601577	1
0	42	22.290004690643	1
0	64	28.142043419415	2
0	84	33.616982023232	2
0	85	33.800873999252	1
0	90	35.238661622977	1
0	109	39.540098004742	2
0	114	40.987066032947	0
0	118	41.260565428064	1
0	120	41.587691899739	0
0	125	43.892022459069	0
0	131	45.345097095473	1
0	142	50.75766738737	1
0	149	54.313832947053	0
0	152	55.528007885674	0
0	157	55.816962391138	1
0	158	56.661881795038	0
0	167	61.773395392578	1
0	178	66.824892216595	1
0	192	72.16433278122	1
0	195	72.745287197642	0
0	206	76.375095575233	0
0	208	76.427898066237	0
0	212	77.382159252884	1
0	221	82.607435099082	1
0	223	83.302595556483	0
0	231	86.282215697924	0
0	237	87.77844423987	1
0	243	92.613624348772	0
0	247	93.253844595049	1
0	261	98.69272426772	1
0	276	104.319641665091	1
0	277	104.493482926513	0
0	279	104.53746560868	0
0	284	107.159997712354	0
0	291	109.98693402554	1
0	298	114.469949024033	0
0	303	115.065371657024	1
0	313	120.657862590161	1
0	328	126.45555923367	1
0	329	126.636041691527	0
0	342	131.597433195684	0
0	346	131.904531319161	1
0	352	134.130876556505	0
0	361	137.645595751238	1
0	366	139.334088921432	0
0	375	142.878206068418	1
0	385	146.425549057545	0
0	393	148.819668094629	1
0	409	154.742543963717	1
0	421	158.346408394167	0
0	425	159.324585436612	0
0	427	159.800227518078	0
0	431	160.222228677712	1
0	442	166.05944267614	1
0	458	171.169770735784	1
0	460	171.61527808977	0
0	468	174.59641265974	0
0	476	176.696399681971	1
0	486	181.601934833688	0
0	490	181.842139682968	1
0	505	186.863990626533	1
0	516	189.902326358715	0
0	519	190.9018480283	0
0	526	192.223959509286	1
0	542	198.037913933399	1
0	559	203.159468566652	0
0	565	203.900772921045	1
0	584	209.349075754641	2
0	593	211.740223457459	0
0	604	214.453451968266	1
0	619	219.998308848124	0
0	624	220.327672080837	1
0	625	220.784307700235	0
0	640	225.622726450443	1
0	658	230.806573019249	0
0	660	231.13333251444	1
0	665	231.42593644187	1
0	682	236.574159485522	2
0	699	241.734661678319	2
0	707	243.502703671229	1
0	713	245.579527118944	0
0	720	246.801854870516	1
0	740	252.580846610946	2
0	751	255.826191230212	0
0	754	256.42525917618	1
0	762	258.497746960028	1
0	786	264.209223418497	2
0	796	267.184438868661	0
0	801	268.594455832734	1
0	807	269.756248801481	1
0	808	269.864046746287	1
0	815	271.761561105377	0
0	820	273.21296024602	0
0	826	275.242303687846	1
0	827	275.64171145612	0
0	841	280.932031728094	1
0	855	286.040307939751	1
0	872	291.746911939233	2
0	897	297.532110791653	2
0	902	298.876102906069	0
0	904	299.128889830439	1
0	913	302.735166843748	1
0	917	302.995348624885	1
0	936	308.110228462377	2
0	943	310.626587725478	0
0	953	313.392607040703	1
0	962	315.970378963399	1
0	973	318.562459828099	2
0	996	324.200563902035	2
0	1002	326.007483570021	0
0	1008	327.658783474238	1
0	1011	328.162743667603	0
0	1017	329.476408278569	1
0	1032	334.302632505081	1
0	1036	335.001825088402	1
0	1057	340.44873020309	2
0	1074	345.614057496888	2
0	1082	347.696265218671	1
0	1096	351.369986381148	2
0	1104	353.377180468996	1
0	1109	354.48496967973	0
0	1113	355.570345473591	1
0	1120	356.776922806864	1
0	1125	357.882223419963	0
0	1135	361.66744846828	0
0	1140	362.314973763655	1
0	1156	367.346463157096	1
0	1177	373.264006232842	2
0	1179	373.745768518187	0
0	1187	376.3215686701	1
0	1199	379.134088728576	1
0	1200	379.52538139664	0
0	1216	384.969983625923	1
0	1217	385.011387995446	0
0	1235	390.729505102149	1
0	1255	396.556578071554	2
0	1267	400.920917109817	0
0	1274	402.289365980075	1
0	1281	404.025646602852	1
0	1297	408.181801879545	2
0	1309	412.23436342948	0
0	1314	413.290868639015	1
0	1319	413.499562714947	1
0	1330	417.228302603237	0
0	1337	419.262913245242	1
0	1345	420.899568978582	0
0	1354	424.21056853328	0
0	1359	424.310554919997	1
0	1374	430.253991729347	1
0	1375	430.875934022478	0
0	1380	432.598333949223	0
0	1390	435.914872759022	1
0	1400	439.91185597214	0
0	1407	441.042826380814	1
0	1421	446.130063319346	1
0	1422	446.450492498579	0
0	1438	451.159575857921	1
0	1439	451.448554063331	0
0	1445	453.394709799205	0
0	1456	456.984148824821	1
0	1469	462.082021706971	1
0	1481	465.844744915725	0
0	1491	468.003042310244	1
0	1504	471.347118772101	0
0	1515	473.948804217857	1
0	1536	479.801761982265	2
0	1542	481.426633175233	0
0	1547	482.327374219781	0
0	1553	484.851695742225	1
0	1557	485.142267217162	1
0	1567	488.872335336172	0
0	1575	491.022786774906	1
0	1586	495.630944902311	0
0	1590	496.569008142921	1
0	1607	502.062363897451	1
0	1631	507.808840235463	2
0	1632	508.106108183855	1
0	1636	508.794438841171	0
0	1647	512.97815458756	1
0	1660	516.516238966608	0
0	1664	517.213271352699	0
0	1669	518.278730066727	1
0	1671	518.921204420154	0
0	1682	523.304293738213	1
0	1696	529.258123403648	1
0	1708	532.394092984497	0
0	1717	534.858325848589	1
0	1738	540.404140970437	2
0	1741	541.428741896293	0
0	1758	545.472033729544	1
0	1759	545.767716046423	0
0	1774	550.483646792127	1
0	1792	555.959422381129	2
0	1797	557.159575696338	1
0	1814	561.264201606624	2
0	1821	563.568825569704	0
0	1825	564.439344650136	1
0	1832	566.426676060073	1
0	1839	568.570934704155	0
0	1853	572.05079083913	1
0	1872	577.600218850188	2
0	1880	579.892884820351	1
0	1896	582.702149615157	2
0	1915	587.765443187207	2
0	1922	589.956347424302	0
0	1934	593.379495279398	1
0	1938	594.649800509798	1
0	1940	594.937449045015	1
0	1945	596.184474718524	1
0	1948	596.861288405722	0
0	1955	598.655798933469	1
0	1973	604.032403038815	2
0	1991	609.320907058195	2
0	1993	609.597470868032	1
0	1999	610.783332469292	1
0	2016	615.013291179902	2
0	2017	615.342865244836	0
0	2021	616.562397682343	0
0	2029	620.06051009032	1
0	2045	625.804642129923	1
0	2056	628.778343970887	1
0	2063	630.199318379746	0
0	2071	631.705924991053	1
0	2072	631.807657557771	0
0	2074	632.503520294325	0
0	2085	636.792770143599	1
0	2100	641.525291792001	0
0	2104	642.036223859294	1
0	2116	646.744477821282	0
0	2121	647.815506441985	1
0	2136	653.542246844853	1
0	2145	655.961463149638	0
0	2152	658.311911448139	0
0	2156	658.685552736745	1
0	2172	663.924283028581	1
0	2173	664.154688506271	0
0	2183	668.070199023002	0
0	2191	669.818288197742	1
0	2197	672.779812506518	0
0	2205	674.967132882449	1
0	2215	678.694557824522	0
0	2221	680.021600912559	1
0	2234	685.085981776008	1
0	2239	686.984769889154	0
0	2243	687.857858071454	0
0	2251	690.159043396825	1
0	2258	693.201344945354	0
0	2262	694.375296712504	0
0	2267	695.825875903016	1
0	2278	701.545136941133	1
0	2293	706.927620508011	1
0	2296	707.421505878564	0
0	2309	712.056526469534	1
0	2327	717.140225147364	2
0	2348	722.698714332191	2
0	2355	724.437549014809	0
0	2359	725.795710328386	1
0	2362	726.400239529206	1
0	2367	727.723600640545	0
0	2373	728.458331798438	1
0	2379	730.773661136047	0
0	2388	733.94076319854	1
0	2403	739.324712043863	1
0	2424	745.180050345838	2
0	2441	750.486594757068	0
0	2446	750.777200828541	1
0	2456	754.047758117321	0
0	2464	756.366845606828	1
0	2470	757.645133235377	1
0	2476	758.905055435028	0
0	2478	759.047843905516	0
0	2485	761.984772809783	1
0	2499	767.811398097316	1
0	2523	773.646766818829	2
0	2526	774.702809027049	1
0	2542	778.674746865409	2
0	2543	779.171768851697	0
0	2559	783.853687082885	1
0	2565	786.424697721028	0
0	2575	789.097187741662	1
0	2580	790.286721079612	0
0	2596	794.945792478279	1
0	2606	797.981316094405	0
0	2615	800.628710630352	1
0	2631	805.191311236588	1
0	2636	805.940462982053	0
0	2640	805.957450003365	1
0	2662	811.612363742666	2
0	2681	817.007067177679	2
0	2685	818.560135413312	0
0	2687	818.580060289593	0
0	2691	819.925319706324	1
0	2694	821.542637939333	0
0	2698	822.435600748287	1
0	2702	824.973876301899	0
0	2709	828.036516307622	1
0	2713	831.096755911015	1
0	2720	833.316136910349	1
0	2737	838.70756816934	1
0	2744	840.535171796919	0
0	2755	843.76083680452	1
0	2764	846.679963721312	0
0	2772	848.866629559083	1
0	2787	853.889785980575	0
0	2793	854.784527464539	1
0	2812	860.694932696644	2
0	2814	861.209319461954	1
0	2835	866.62216667738	2
0	2841	867.743647430676	0
0	2855	871.953305043515	1
0	2866	875.044007941851	0
0	2872	876.57542301738	1
0	2878	877.356149271133	1
0	2897	883.010077338435	0
0	2901	883.029653219276	1
0	2907	885.002173986638	0
0	2916	888.232841059335	1
0	2918	888.494144116764	0
0	2938	894.215735128617	1
0	2944	895.99045329518	0
0	2958	899.238659100609	1
0	2963	900.875055612766	0
0	2973	904.42832180392	0
0	2979	905.114066844575	1
0	2995	910.703217110366	1
0	2998	912.111930662883	0
0	3013	916.420428840679	1
0	3031	921.990704173225	2
0	3035	922.877840614413	0
0	3044	926.261235519313	0
0	3051	927.566413533411	1
0	3066	932.72357903654	1
0	3073	934.599408861716	0
0	3086	938.413459345235	1
0	3102	942.410379528535	1
0	3113	944.017006986311	2
0	3117	945.801192197835	0
0	3121	946.733094317142	1
0	3129	948.890002589559	0
0	3134	949.958332907411	1
0	3138	951.780685094885	0
0	3145	955.506883108991	0
0	3149	955.680391848555	1
0	3160	961.173252450304	1
0	3176	966.506752192743	1
0	3196	971.600626625355	2
0	3215	977.007398938296	2
0	3226	980.880765405371	1
0	3233	982.118339800277	2
0	3234	982.351270809774	1
0	3247	986.050632751316	1
0	3254	987.388416237665	2
0	3259	989.367760916358	0
0	3273	992.98493500054	1
0	3278	995.044736673125	0
0	3290	998.041749324884	1
0	3295	999.5596419503	1
0	3310	1003.81372883497	2
0	3314	1004.908713791169	0
0	3326	1009.329949768728	1
0	3327	1009.398522207285	0
0	3333	1011.539302751889	1
0	3345	1015.081743341873	1
0	3355	1018.155275668949	0
0	3364	1020.216267567596	1
0	3368	1021.433658752243	0
0	3372	1022.294093933657	0
0	3383	1026.168461494849	1
0	3397	1031.804951129484	1
0	3417	1036.81486606505	2
0	3420	1037.576472689283	0
0	3425	1038.942204558641	0
0	3435	1042.218394305792	1
0	3440	1044.731386780856	0
0	3449	1047.968870115934	1
0	3464	1053.639857436765	1
0	3474	1056.659702682637	0
0	3476	1057.280102952152	0
0	3484	1058.858376390303	1
0	3487	1060.073372463469	1
0	3501	1064.383307079787	1
0	3512	1067.147485932571	0
0	3515	1067.946707526572	0
0	3517	1068.152123380458	0
0	3523	1069.749449219324	1
0	3534	1074.768846118592	1
0	3552	1080.298093701715	1
0	3572	1086.205332475018	2
0	3592	1091.878795474187	0
0	3598	1092.082544013627	1
0	3603	1094.100178124969	1
0	3605	1094.114739771353	0
0	3618	1097.644593032079	1
0	3632	1102.296043063868	0
0	3639	1102.908841535917	1
0	3642	1104.148020879717	0
0	3651	1106.669315636626	0
0	3657	1108.131841171535	1
0	3668	1112.932634115687	0
0	3674	1113.425342286008	1
0	3689	1118.558767277517	1
0	3694	1119.806154304535	0
0	3703	1121.950325333864	0
0	3710	1123.873046729018	1
0	3726	1129.605113401313	1
0	3744	1135.205822177699	2
0	3751	1136.845030535713	0
0	3759	1138.726661672002	0
0	3766	1141.077124400765	1
0	3770	1142.74638162053	0
0	3772	1143.392255671326	1
0	3781	1146.531004556224	1
0	3796	1151.707464172507	1
0	3807	1155.02362371667	0
0	3812	1156.548345254737	0
0	3816	1157.353329532549	1
0	3820	1159.14481368021	0
0	3830	1162.917604420336	1
0	3843	1168.50484371698	0
0	3847	1168.757616420046	1
0	3849	1169.72225373774	0
0	3856	1172.819126498771	0
0	3861	1174.306982737968	1
0	3868	1179.957880095697	0
0	3872	1180.186030092651	1
0	3875	1181.913138122416	0
0	3882	1185.667177765632	1
0	3892	1190.973401031459	1
0	3893	1191.378255203252	0
0	3904	1196.791292397889	0
0	3908	1196.909119446066	1
0	3919	1202.187000724024	1
0	3935	1207.393235434548	1
0	3945	1210.423215384947	0
0	3952	1213.021853831483	0
0	3956	1213.338025444423	1
0	3958	1214.628955878318	0
0	3970	1219.06623949786	1
0	3985	1224.538166154179	1
0	3990	1226.377768714217	0
0	4001	1229.582392764979	1
0	4004	1230.112672426973	0
0	4008	1230.557028818646	0
0	4019	1234.842306734298	1
0	4025	1237.193101553367	0
0	4033	1240.75440038089	1
0	4053	1246.624261330118	1
0	4072	1252.570806209001	2
0	4081	1254.454173921956	0
0	4083	1254.545232338369	0
0	4087	1255.688793164679	1
0	4094	1258.028902934169	1
0	4106	1262.295509007295	0
0	4110	1263.565268483948	1
0	4115	1266.066717827348	0
0	4123	1268.984627379341	1
0	4136	1273.993116715694	1
0	4137	1274.039573897146	0
0	4152	1279.066185597567	1
0	4161	1281.889429353648	0
0	4172	1284.439159017526	1
0	4184	1288.28543081717	0
0	4191	1289.761407064977	1
0	4198	1291.244686836381	0
0	4214	1295.760754786902	1
0	4222	1298.549553571155	0
0	4232	1301.227484537526	1
0	4248	1306.134639520086	0
0	4253	1306.421938103163	1
0	4261	1308.318655963991	0
0	4269	1310.857485197139	0
0	4275	1312.174743828834	1
0	4290	1317.922390833735	1
0	4292	1318.573729929636	0
0	4308	1323.328741063136	1
0	4328	1328.913815298356	2
0	4331	1329.929932651929	0
0	4340	1332.707772538884	1
0	4346	1334.537801758392	1
0	4363	1339.765081351629	2
0	4365	1340.025369825661	0
0	4369	1340.779515284935	0
0	4381	1345.688885299728	1
0	4387	1347.563411033133	1
0	4398	1351.575014853391	1
0	4416	1356.888214744401	2
0	4437	1362.830388124107	2
0	4449	1365.974226838913	0
0	4458	1368.017031555536	1
0	4464	1369.512627839582	0
0	4470	1371.085992303098	1
0	4479	1373.699976661482	1
0	4490	1377.712164090253	1
0	4499	1379.262950882555	2
0	4518	1385.017575923593	2
0	4538	1390.696405405418	2
0	4543	1391.960965355748	1
0	4551	1393.875861139043	0
0	4558	1396.116309502402	1
0	4562	1396.252453186323	1
0	4567	1397.603695685513	1
0	4584	1402.097193330766	2
0	4597	1406.104423471034	0
0	4604	1407.160194007221	1
0	4606	1407.645033027864	1
0	4616	1410.49106512545	0
0	4626	1412.933966486722	1
0	4647	1418.689431268962	2
0	4666	1424.073863528557	0
0	4671	1424.57997092	1
0	4684	1429.146030434532	0
0	4690	1429.951018530417	1
0	4700	1432.97813969735	0
0	4704	1433.466470846798	1
0	4707	1434.510702246925	0
0	4713	1435.573079237256	1
0	4714	1436.03110260645	0
0	4721	1439.238591774606	0
0	4727	1440.708054308787	1
0	4738	1445.823800842751	1
0	4741	1446.891395670369	0
0	4753	1451.694837322233	1
0	4766	1456.914726567462	1
0	4773	1459.344547713065	0
0	4786	1462.689830052907	1
0	4792	1464.336642424	0
0	4803	1467.810350035791	1
0	4826	1473.76418558183	2
0	4828	1474.046605927412	0
0	4838	1477.747514797499	0
0	4840	1478.148273769075	0
0	4845	1479.14272202785	1
0	4852	1482.406229302529	1
0	4858	1484.430668784779	1
0	4874	1490.132352679044	1
0	4879	1491.572930103177	0
0	4883	1492.20389783488	0
0	4893	1495.982953262756	1
0	4897	1497.179214474985	0
0	4905	1501.298301244277	0
0	4909	1501.580291621628	1
0	4920	1506.734248889386	1
0	4937	1512.66354837479	1
0	4952	1517.64693040448	0
0	4954	1518.10681670544	0
0	4959	1518.403585616042	1
0	4970	1523.45623813419	0
0	4975	1524.269399815713	1
0	4984	1527.667516280556	0
0	4986	1527.67732178374	0
0	4992	1530.167160676801	1
0	5004	1535.395382877914	1
0	5012	1538.689886733783	0
0	5020	1540.676985105509	1
0	5027	1543.496416268762	0
0	5035	1545.728054223592	1
0	5052	1551.362169507901	1
0	5058	1552.931137375893	0
0	5067	1556.698020041112	0
0	5073	1557.31196943625	1
0	5091	1562.88928884688	1
0	5102	1567.12379918039	0
0	5110	1568.663157070067	1
0	5112	1568.958721698387	0
0	5114	1570.236500221316	0
0	5118	1571.433871129885	0
0	5124	1573.846351858706	1
0	5126	1574.650401926611	0
0	5133	1579.599010838673	1
0	5144	1585.373227692221	1
0	5160	1590.921702561213	1
0	5180	1596.692564432288	2
0	5188	1598.973283603215	1
0	5201	1602.082455802953	2
0	5202	1602.354842279236	0
0	5206	1603.295536401578	0
0	5217	1607.200068183255	1
0	5225	1610.668955056009	0
0	5235	1613.173205789423	1
0	5254	1618.799445070571	1
0	5274	1624.68003796275	2
0	5275	1625.390038608353	1
0	5278	1625.555912291642	1
0	5289	1628.574598739983	0
0	5296	1629.786394101579	1
0	5300	1630.701019823562	0
0	5313	1634.787987475528	1
0	5325	1638.703805730109	0
0	5330	1639.547928474041	0
0	5334	1639.858185360686	1
0	5337	1640.479580370022	0
0	5340	1641.029085138939	0
0	5349	1645.407819196827	1
0	5362	1651.231104290125	1
0	5370	1654.336126382242	0
0	5378	1657.079979687941	1
0	5381	1657.765299038044	0
0	5388	1661.222456374334	0
0	5390	1661.923171946208	0
0	5394	1662.817297200684	1
0	5402	1668.546782128525	1
0	5414	1674.439566035767	1
0	5428	1679.396738874624	0
0	5433	1680.19567638241	1
0	5449	1685.890397843684	1
0	5459	1688.680601317332	0
0	5469	1691.13734153962	1
0	5487	1696.211157003662	2
0	5492	1697.827214977482	0
0	5494	1698.284082491895	0
0	5504	1701.770503869059	1
0	5521	1707.72065358028	1
0	5525	1709.163161898278	0
0	5532	1711.197899527279	1
0	5539	1712.909069429396	1
0	5558	1717.770367329603	0
0	5563	1718.166235813882	1
0	5585	1723.699681726994	2
0	5604	1728.813541019579	2
0	5605	1729.25671141852	0
0	5608	1729.708172886179	0
0	5619	1733.871065986819	1
0	5634	1739.760530014766	1
0	5636	1740.755183853921	1
0	5655	1745.151428995665	2
0	5660	1746.336614002834	1
0	5680	1750.710417307226	2
0	5691	1753.461335136333	1
0	5706	1756.51614366566	2
0	5710	1757.669552365679	0
0	5716	1758.921940430195	1
0	5727	1761.934574453404	1
0	5739	1766.107293315592	0
0	5747	1767.729436422244	1
0	5756	1771.233697322559	1
0	5766	1773.296881607745	2
0	5787	1778.469765589351	2
0	5788	1778.907298106014	1
0	5794	1780.183608544535	1
0	5807	1783.863545339799	2
0	5826	1789.127366020821	2
0	5829	1790.175559868469	0
0	5831	1790.336160520453	0
0	5842	1794.84893147276	1
0	5859	1800.018647492875	1
0	5868	1802.557105558354	1
0	5874	1804.026762586679	1
0	5884	1806.013962457201	2
0	5899	1810.813811627112	0
0	5906	1812.008639659511	1
0	5919	1815.084267785318	0
0	5929	1817.520856291067	1
0	5942	1821.416078949358	0
0	5949	1823.350140170206	1
0	5962	1827.404782703508	1
0	5969	1828.46766009928	2
0	5976	1830.268742066235	0
0	5981	1831.265536814009	0
0	5989	1834.147173486895	1
0	6005	1839.531554472878	1
0	6024	1845.127734194056	2
0	6045	1850.84700038425	2
0	6051	1852.64672550409	1
0	6058	1854.948916068661	0
0	6060	1855.311112504463	1
0	6067	1856.338199715142	1
0	6088	1861.994028243248	2
0	6090	1862.510508079676	0
0	6108	1867.839589506399	1
0	6113	1869.87587586198	0
0	6115	1870.268429656409	1
0	6123	1872.461934044852	0
0	6129	1873.187411855452	1
0	6142	1878.901997803257	1
0	6146	1879.060043485381	1
0	6166	1884.543187520711	2
0	6182	1889.537914563797	0
0	6186	1889.680258940684	1
0	6207	1895.121777107485	2
0	6214	1897.369411904957	0
0	6220	1899.210774077812	1
0	6223	1899.374093476928	0
0	6228	1900.976234295417	1
0	6244	1906.948782168806	1
0	6250	1908.499230975181	1
0	6268	1912.638240661716	2
0	6272	1914.440321526502	1
0	6289	1918.417434197396	2
0	6300	1922.087946600874	0
0	6302	1922.182151877099	0
0	6309	1923.502740532637	1
0	6313	1926.241306874796	0
0	6315	1926.259894886417	1
0	6321	1928.656449334242	1
0	6339	1934.509301002149	1
0	6354	1938.710662250305	0
0	6361	1940.118036399607	1
0	6365	1941.495579793714	0
0	6369	1942.299807937361	0
0	6378	1945.182071554719	1
0	6384	1947.283735896937	0
0	6391	1950.309480662236	1
0	6401	1955.293019010696	0
0	6406	1956.042449943034	1
0	6419	1961.294836394851	0
0	6424	1961.91324611312	1
0	6435	1965.950854054314	0
0	6440	1967.403549818799	1
0	6448	1970.733764042042	0
0	6455	1972.545348516677	1
0	6470	1978.45880277293	1
0	6490	1983.980110184301	2
0	6509	1989.282785523461	2
0	6515	1990.893237616994	0
0	6521	1993.265720052655	1
0	6527	1994.662861675268	1
0	6547	2000.043372364726	2
0	6554	2002.071017359746	0
0	6557	2002.721767107734	1
0	6566	2005.108846538246	1
0	6588	2010.658903511718	2
0	6604	2015.021348167105	1
0	6606	2015.350867998566	1
0	6613	2015.996333942993	2
0	6614	2016.393796706117	0
0	6633	2021.972707507678	1
0	6642	2024.860253251867	0
0	6645	2025.507168520486	0
0	6651	2027.205855207995	1
0	6658	2030.488066746281	0
0	6664	2032.480627308728	1
0	6668	2032.759939193504	1
0	6676	2035.623941289622	0
0	6685	2038.282814035203	1
0	6692	2040.680017767254	0
0	6702	2043.791776238719	1
0	6716	2049.175314233417	1
0	6721	2050.636574603395	0
0	6736	2055.128897083236	1
0	6755	2060.177957793476	2
0	6758	2060.790182315174	0
0	6774	2065.738241728174	1
0	6776	2066.643130664142	1
0	6789	2070.122408247449	0
0	6793	2071.053499792714	1
0	6795	2071.30739243644	0
0	6803	2073.799643748685	0
0	6810	2076.902487077063	1
0	6824	2082.409869332576	1
0	6826	2083.068858714087	0
0	6843	2088.407632163737	1
0	6858	2092.631597182492	0
0	6865	2093.76350121434	1
0	6871	2096.114310455287	0
0	6884	2099.704726928157	1
0	6891	2102.116755423497	0
0	6903	2105.378088961366	1
0	6914	2109.024279058805	0
0	6918	2110.198716589376	0
0	6924	2110.955181475041	1
0	6942	2116.400961470568	1
0	6943	2117.175592125287	0
0	6957	2121.63288292546	1
0	6968	2124.949194190219	0
0	6978	2127.366689166764	1
0	6984	2129.467276329302	0
0	6990	2131.229007281722	0
0	6997	2132.712383989955	1
0	7007	2137.097273682605	0
0	7012	2137.916650306445	1
0	7014	2138.624047857952	0
0	7025	2143.714658061287	1
0	7034	2147.605762566568	0
0	7043	2149.58038971225	1
0	7058	2154.925966363295	0
0	7062	2155.355183108255	1
0	7067	2156.450880592816	0
0	7077	2160.888040432019	1
0	7085	2163.650763546013	0
0	7089	2164.425851422258	0
0	7095	2165.975074024416	1
0	7105	2171.326135180436	1
0	7120	2176.981915368011	1
0	7125	2178.434619237098	0
0	7130	2180.12081126311	0
0	7135	2181.448620423802	0
0	7140	2182.046335891599	1
0	7150	2187.564239100797	1
0	7151	2188.168822957562	0
0	7163	2192.615573007624	1
0	7178	2198.256910551816	1
0	7197	2203.276514548472	0
0	7202	2204.063788924144	1
0	7223	2209.614381251402	2
0	7230	2211.618649042804	0
0	7232	2211.724003546649	1
0	7243	2214.792819812672	1
0	7245	2215.109482619572	0
0	7255	2218.830197884247	0
0	7260	2219.999749765044	1
0	7262	2220.849786138406	0
0	7273	2225.101799863169	1
0	7287	2230.258623090584	1
0	7307	2235.925213480147	2
0	7311	2236.688648311547	1
0	7313	2236.953911717759	0
0	7315	2237.319966364198	0
0	7326	2241.587348827871	1
0	7330	2243.246629141629	0
0	7340	2247.586041630723	1
0	7348	2250.91375368404	0
0	7354	2252.769887362386	1
0	7364	2257.243717935063	0
0	7369	2257.861821644253	1
0	7376	2260.510051989357	0
0	7385	2263.3717332387	1
0	7398	2268.89414891043	1
0	7413	2272.80974302279	0
0	7420	2274.253222686949	1
0	7424	2275.815824245347	0
0	7438	2280.071293737751	1
0	7461	2285.184377003706	2
0	7467	2286.347370911748	1
0	7483	2290.414276954263	0
0	7487	2290.700995100674	1
0	7488	2290.763535902266	0
0	7505	2296.032456814091	1
0	7507	2296.69807062241	0
0	7523	2301.047516279866	1
0	7541	2306.243362989056	2
0	7543	2306.672485852394	0
0	7559	2312.003878064233	1
0	7575	2316.273525724314	1
0	7582	2317.64308861551	0
0	7586	2317.723257325136	1
0	7598	2322.013228963491	0
0	7601	2322.567382469436	0
0	7603	2322.679357287367	0
0	7607	2322.896821478161	1
0	7610	2325.397785120193	0
0	7616	2328.07963773819	1
0	7627	2333.720483306808	1
0	7640	2338.630316974957	0
0	7646	2339.143854746375	1
0	7661	2344.856211452525	1
0	7670	2347.647445829713	0
0	7680	2350.113004765486	1
0	7690	2353.522383147047	0
0	7693	2355.041676431674	0
0	7699	2355.837249059476	1
0	7714	2361.158895480227	1
0	7734	2367.122209871434	2
0	7735	2367.154507634825	0
0	7747	2371.143997173187	0
0	7751	2372.209298859364	1
0	7753	2372.408212475141	0
0	7760	2376.507278451826	1
0	7767	2377.89571650933	1
0	7783	2383.876544419224	1
0	7802	2389.13274973283	2
0	7814	2392.567798790653	0
0	7825	2395.09201798147	1
0	7830	2396.995928931763	0
0	7841	2400.61170972885	1
0	7847	2402.872434504112	0
0	7859	2406.118945359265	1
0	7861	2406.75541124925	1
0	7879	2411.541280261021	2
0	7900	2417.487207838114	2
0	7912	2420.924115625689	0
0	7920	2422.965745851876	1
0	7934	2426.951185467666	0
0	7940	2428.194045883616	1
0	7957	2433.36183059729	2
0	7964	2435.472389247399	1
0	7979	2439.090507513623	2
0	7995	2444.191153139354	1
0	7998	2444.285589937948	0
0	8002	2444.850866464445	1
0	8006	2446.60015362223	1
0	8021	2449.866791831342	2
0	8041	2455.089896235628	2
0	8042	2455.302568849305	0
0	8055	2460.649453714619	1
0	8059	2460.939556692041	1
0	8076	2466.084764652669	1
0	8082	2466.930038667297	2
0	8101	2472.585789521704	2
0	8103	2472.966788155272	1
0	8115	2477.367908237513	1
0	8125	2478.336467492408	2
0	8140	2483.659093213512	1
0	8144	2484.157626001411	2
0	8165	2489.543751084492	2
0	8168	2490.95352449537	0
0	8181	2494.700399539913	1
0	8194	2498.557828238013	1
0	8197	2498.935101679892	1
0	8204	2499.903492169934	2
0	8213	2502.624265852044	1
0	8224	2505.610134177855	2
0	8243	2511.468563267276	2
0	8265	2517.145957237821	2
0	8277	2521.278072416681	1
0	8284	2522.39825507278	2
0	8285	2522.832567527317	1
0	8290	2523.894147958158	1
0	8302	2526.877359087473	1
0	8309	2528.142800955581	2
0	8333	2534.10965459865	2
0	8348	2538.957633192778	1
0	8353	2539.364585981951	2
0	8362	2542.93773220131	0
0	8371	2544.67057610095	1
0	8389	2549.949202348725	2
0	8394	2551.36876945758	1
0	8397	2551.943948120361	0
0	8402	2553.472239685493	1
0	8409	2555.060641302741	1
0	8429	2560.40223229445	2
0	8445	2565.611382826356	1
0	8450	2565.801855068434	2
0	8455	2566.977338291486	1
0	8465	2569.952744613526	1
0	8467	2570.721305335304	0
0	8471	2571.136202244101	1
0	8482	2573.670233863071	0
0	8484	2574.319917734138	0
0	8492	2576.218740719383	1
0	8507	2581.846630885278	1
0	8519	2585.56267602091	0
0	8521	2585.842647323519	1
0	8529	2587.70944866679	1
0	8547	2592.78543498671	2
0	8551	2593.842072725076	0
0	8560	2596.781265799905	1
0	8567	2598.737813084399	1
0	8580	2602.620384263936	0
0	8585	2603.380235418224	0
0	8590	2604.663927226806	1
0	8598	2608.571486666933	0
0	8604	2610.509599699186	1
0	8614	2614.21908104456	0
0	8617	2615.241047511239	0
0	8622	2615.959326385999	1
0	8632	2621.517649267115	1
0	8650	2627.170329999192	1
0	8671	2632.794562426176	2
0	8688	2637.622160449638	1
0	8692	2637.828735673813	2
0	8695	2639.322300527026	1
0	8707	2642.400283075999	0
0	8713	2642.992466633687	1
0	8724	2646.123541262481	0
0	8728	2647.308170261689	0
0	8733	2648.297958989641	1
0	8740	2650.558367918375	0
0	8750	2653.766230666325	1
0	8765	2659.346638090456	1
0	8777	2663.585058212179	0
0	8784	2664.417628134847	1
0	8802	2669.572627056403	2
0	8816	2674.639446695348	0
0	8820	2675.064400389105	1
0	8829	2677.693880099698	0
0	8833	2678.969794704011	1
0	8840	2680.294061782317	1
0	8848	2682.493923942689	0
0	8862	2686.28311977141	1
0	8868	2688.092177376163	0
0	8880	2691.837310021291	1
0	8898	2697.139357985709	2
0	8918	2702.976912480327	2
0	8933	2707.846050282602	0
0	8935	2708.001818199538	0
0	8938	2708.143509362023	1
0	8942	2708.870281862341	1
0	8944	2709.536649958826	1
0	8953	2712.476881948778	0
0	8959	2714.273042301661	1
0	8974	2719.501929306672	1
0	8995	2725.000008140705	2
0	9015	2730.306048083599	2
0	9037	2736.002146099708	2
0	9041	2737.054852430955	1
0	9044	2737.563111547393	1
0	9050	2739.379214931408	0
0	9054	2740.293294389746	0
0	9060	2741.780286398265	1
0	9065	2743.273833438769	0
0	9069	2745.763230892614	1
0	9076	2747.316956809736	1
0	9091	2752.979531331235	1
0	9092	2753.041644067401	0
0	9108	2758.292543604752	1
0	9119	2761.110329255242	0
0	9122	2761.903686121358	0
0	9129	2763.793182163281	1
0	9135	2766.328260401745	0
0	9145	2769.035966236625	1
0	9158	2774.137436567821	1
0	9165	2775.576563667987	0
0	9179	2779.321681191927	1
0	9189	2782.76865122201	0
0	9191	2783.295781210428	0
0	9197	2785.226740269937	1
0	9199	2785.468622186703	0
0	9210	2790.30796199503	1
0	9225	2795.393849598026	1
0	9239	2799.580511426684	0
0	9246	2800.729084494772	1
0	9260	2805.291670357823	0
0	9268	2806.651795327213	1
0	9285	2811.702405087665	2
0	9306	2817.339285043549	2
0	9315	2819.600170351813	1
0	9329	2822.436465888532	2
0	9342	2826.224973683146	0
0	9346	2827.850761179358	0
0	9350	2827.977837689469	1
0	9360	2832.369493570078	1
0	9367	2833.889202916079	1
0	9385	2838.898718864673	2
0	9392	2841.31793193055	1
0	9394	2841.823566754132	0
0	9403	2844.45301040869	1
0	9407	2844.693984895495	1
0	9425	2850.092659056551	0
0	9429	2850.353440708031	1
0	9434	2851.945048685435	0
0	9447	2855.528477571455	1
0	9474	2861.500114590411	2
0	9483	2864.562751085511	0
0	9493	2867.249043628124	1
0	9505	2870.321943554109	1
0	9512	2872.445360048458	0
0	9516	2872.520345505343	1
0	9533	2876.685926893858	0
0	9540	2877.713094377441	1
0	9556	2882.563441037684	0
0	9560	2882.839073978148	1
0	9566	2884.694232987373	0
0	9578	2888.292558365518	1
0	9595	2893.398726140631	2
0	9596	2893.408532561748	1
0	9609	2897.245134923741	0
0	9619	2899.14571547277	1
0	9626	2901.140334687676	0
0	9633	2903.290513111527	0
0	9639	2904.278666569867	1
0	9654	2909.507799443572	1
0	9675	2915.099553860274	2
0	9676	2915.55730382285	0
0	9687	2919.200555965553	1
0	9689	2919.424863926267	0
0	9695	2920.394046692892	1
0	9713	2925.899530766315	1
0	9714	2925.974185737098	0
0	9718	2927.216277587359	0
0	9723	2929.375785212282	0
0	9728	2931.167206689033	1
0	9737	2936.350289992539	1
0	9755	2941.923272445349	1
0	9756	2942.467348246968	0
0	9770	2947.25457720239	0
0	9775	2947.801050262542	1
0	9784	2952.452853744981	0
0	9787	2952.565720414991	0
0	9791	2953.05654629275	1
0	9801	2958.933904554595	0
0	9806	2959.044814196199	1
0	9816	2964.765766456041	1
0	9831	2969.791973872592	1
0	9832	2970.767942404973	0
0	9846	2975.094086223997	1
0	9856	2977.802005973428	0
0	9866	2980.58063663963	1
0	9875	2983.978975862515	0
0	9879	2984.786551614424	0
0	9886	2986.293598762963	1
0	9897	2990.768296914889	0
0	9903	2991.601467544463	1
0	9913	2995.583396528049	0
0	9919	2997.531928039872	1
0	9920	2997.627112275471	0
0	9932	3003.427029345668	1
0	9943	3007.453730850848	0
0	9949	3008.860690576508	1
0	9965	3014.195134053025	1
0	9967	3014.679916492332	0
0	9975	3016.961984379817	0
0	9983	3019.612936006644	1
0	9985	3020.903663832478	0
0	9999	3025.312291164435	1
0	10001	3026.633465682176	0
0	10012	3030.956203996921	1
0	10019	3033.846910438867	0
0	10027	3036.471054272745	1
0	10032	3039.109616327699	0
0	10039	3041.67206932839	1
0	10051	3046.559190249904	0