version 3
run General-15-20240428-16:41:48-11297
attr configname General
attr datetime 20240428-16:41:48
attr datetimef 20240428-164148
attr experiment General
attr inifile omnetpp.ini
attr iterationvars $0=false
attr iterationvarsd false
attr iterationvarsf false-
attr measurement $0=false
attr network Supermarket
attr processid 11297
attr repetition 5
attr replication #5
attr resultdir results
attr runnumber 15
attr seedset 5
config network Supermarket
config repeat 10
config seed-set 5
config num-rngs 10
config **.use_random_strategy false

vector 0 Supermarket queueSizeOverTime:vector ETV
attr recordingmode vector
attr source updateQueue
attr title queueSizeOverTime
vector 1 Supermarket customerWaitingTime:vector ETV
attr interpolationmode none
attr recordingmode vector
attr source customerFinished
attr title "cust waiting time"
0	7	5.494601648301	1
0	9	6.989377440186	0
0	13	10.722684754757	1
0	19	15.744120985502	1
0	24	18.951029174379	0
0	31	21.548803538782	1
0	34	23.176635435082	0
0	42	27.521468227496	1
0	47	31.282500496366	0
0	53	32.786126951221	1
0	60	36.97609974898	0
0	65	37.952918822877	1
0	70	41.748841417837	0
0	75	43.481639461825	1
0	86	48.68282470014	1
0	93	52.400268499624	0
0	99	54.281589878258	1
0	104	56.991832686588	0
0	113	59.471941311611	1
0	116	60.517990991707	0
0	126	65.171043907292	1
0	134	68.596122979071	0
0	136	68.934685778804	0
0	141	70.349663105793	1
0	152	75.398188631516	1
0	168	81.122790090041	1
0	186	86.239369607996	2
0	206	91.79495461192	2
0	208	92.724906619404	1
0	218	95.315770229443	0
0	224	96.854605493834	1
0	230	98.819248984453	1
0	241	101.653945257888	0
0	248	102.377077079378	1
0	260	106.235825764828	0
0	269	107.970045296708	1
0	274	109.550747735308	0
0	276	109.759586563104	0
0	288	113.682952429633	1
0	289	113.872839055956	0
0	300	119.588904474163	1
0	306	121.65267742984	0
0	311	124.734098541549	0
0	316	124.880912094842	1
0	328	130.286563033237	1
0	340	135.323596448171	1
0	346	137.155415680258	0
0	351	138.199161174242	0
0	358	140.375292326556	1
0	365	143.591353622615	0
0	374	145.648427772568	1
0	390	150.78875135025	1
0	406	155.818368359702	0
0	411	156.501567931846	1
0	423	160.005982335654	0
0	431	161.690820336808	1
0	452	167.530424949248	2
0	459	169.290913245639	0
0	471	172.567554652924	1
0	488	177.241511831991	0
0	494	177.913708186243	1
0	505	181.913462663882	0
0	513	183.147916860413	1
0	522	185.850144378724	1
0	535	188.791287726723	2
0	540	189.769560066053	0
0	544	190.297428818886	0
0	553	194.683790775249	1
0	560	197.198733392521	0
0	569	200.103967641015	1
0	586	205.953219846124	1
0	601	210.686290655401	1
0	605	211.123249069555	2
0	626	216.514417269733	2
0	630	218.075863577774	0
0	640	221.356558776576	0
0	644	221.521812513937	1
0	659	227.160735746381	1
0	677	232.176851314494	2
0	690	235.795654822026	1
0	698	237.439986083425	2
0	701	237.981989497899	1
0	703	238.064042302546	1
0	722	242.850987520536	2
0	727	244.498542563522	1
0	738	247.852536347227	0
0	742	248.531824579697	1
0	755	252.472945014134	1
0	763	253.800546111774	2
0	766	254.586261275922	0
0	770	256.101749374064	0
0	774	258.158725047487	0
0	779	259.021142313725	1
0	792	264.478665087375	1
0	800	267.979404479502	0
0	807	269.59110755171	1
0	814	272.701718505126	0
0	820	274.797351559161	1
0	821	274.853198328057	1
0	836	280.375626541444	1
0	841	281.488018385368	0
0	854	285.757765908961	1
0	874	291.569743734554	2
0	890	295.88763837924	0
0	896	296.916057364086	1
0	904	299.25892223779	1
0	918	302.26399068977	2
0	927	305.822726238521	0
0	936	307.60291126394	1
0	946	310.420608666262	0
0	958	313.539100610654	1
0	976	318.479495290901	0
0	980	318.674889608056	1
0	1003	324.348779982424	2
0	1005	325.038774288961	1
0	1011	326.487477354594	1
0	1019	327.890332798826	0
0	1029	329.853525014131	1
0	1040	333.654034148439	0
0	1049	335.726955871333	1
0	1056	337.862631836679	0
0	1066	340.912410069259	1
0	1076	344.13371458126	0
0	1087	346.52315701591	1
0	1109	352.493462866872	2
0	1126	357.952490580621	1
0	1131	358.365703368561	2
0	1150	363.709387146404	2
0	1156	366.715904317798	0
0	1163	368.261354508345	1
0	1167	369.14439072041	1
0	1170	370.195633224096	0
0	1183	374.160448985176	1
0	1185	374.452523194606	1
0	1191	376.51226737141	0
0	1202	379.49928869703	1
0	1206	380.585799013033	0
0	1211	381.796446475785	0
0	1219	384.943244417199	1
0	1227	388.500496657799	0
0	1234	389.987816705137	1
0	1236	390.317016943242	0
0	1238	391.040540046059	0
0	1243	395.045274418082	0
0	1247	395.182709996357	1
0	1253	400.934006224853	1
0	1265	405.940824406222	1
0	1273	409.59856458835	0
0	1279	411.22712627193	1
0	1286	413.863674338558	0
0	1288	414.255996221911	0
0	1294	416.987687026384	1
0	1306	422.566262962064	1
0	1322	428.274795493577	1
0	1337	432.530867652504	0
0	1340	433.156283709339	0
0	1344	433.648499229923	1
0	1349	435.92792941723	0
0	1355	438.647339898976	0
0	1360	439.03573119035	1
0	1369	444.175151281757	1
0	1383	449.348283925093	1
0	1394	452.83714855637	0
0	1397	452.958427607547	0
0	1403	454.647919910494	1
0	1419	460.3042213968	1
0	1438	466.14025101508	2
0	1455	471.03255696222	0
0	1461	472.122727248818	1
0	1463	472.607583760631	1
0	1466	474.028528669848	0
0	1469	474.229030666987	0
0	1474	476.225813171593	0
0	1480	477.975785995135	1
0	1483	480.419807532337	0
0	1489	482.995537910145	1
0	1499	488.090084328316	1
0	1511	493.363090289293	0
0	1515	493.993391602998	1
0	1526	498.527407824759	0
0	1532	499.945493604754	1
0	1547	505.907520520733	1
0	1561	510.440791749511	0
0	1567	511.237240274203	1
0	1574	513.534728483179	0
0	1577	514.47702099115	0
0	1579	514.878681521979	0
0	1585	516.559730135136	1
0	1591	521.13086999976	0
0	1596	521.924170336918	1
0	1605	527.55387937487	1
0	1620	532.927615661639	1
0	1622	533.790012709796	0
0	1628	535.385591495781	0
0	1637	538.356750627048	1
0	1645	541.513135231914	0
0	1648	542.058356437715	0
0	1653	543.545839374419	1
0	1659	546.681504240607	0
0	1662	548.368774576344	0
0	1666	549.127755061257	1
0	1674	554.458524939138	1
0	1685	559.832567122066	1
0	1702	565.57311601052	1
0	1704	565.777853766805	0
0	1719	570.904251673025	1
0	1722	571.488152359262	0
0	1737	576.549144729272	1
0	1746	579.591842888853	0
0	1757	582.47296822653	1
0	1762	583.885811698391	0
0	1772	587.472332218545	0
0	1777	587.561478128422	1
0	1789	591.985835626718	0
0	1794	592.786097359609	1
0	1795	593.299925298894	0
0	1800	595.585253341471	0
0	1806	597.875308379529	1
0	1818	603.76030478929	1
0	1834	609.634658925234	1
0	1840	611.409971165584	0
0	1852	614.739802313502	1
0	1859	617.091730047365	0
0	1863	617.861043991519	0
0	1869	619.870570772094	1
0	1886	625.016166761284	1
0	1895	627.977332842885	0
0	1905	630.328945375978	1
0	1911	632.76285363955	0
0	1915	633.965038290015	0
0	1922	635.358434646389	1
0	1931	638.799666630102	0
0	1939	640.952600560848	1
0	1953	646.025290112242	1
0	1956	647.417111907036	0
0	1971	651.884819371857	1
0	1974	652.373968353029	0
0	1982	655.962991582927	0
0	1988	656.893272733314	1
0	1998	660.350302277598	0
0	2005	662.034972116349	1
0	2019	667.215254110748	1
0	2032	671.192346313736	0
0	2039	673.08289432735	1
0	2058	678.666244043734	2
0	2075	683.290361361227	1
0	2082	683.952089415396	2
0	2083	684.237722476942	0
0	2100	689.510063152293	1
0	2115	694.232363294807	0
0	2118	694.612581291117	1
0	2120	694.65369819547	0
0	2124	695.16848565149	1
0	2130	697.047986513816	0
0	2133	697.757311767779	0
0	2141	701.052152184535	1
0	2143	702.427561547954	0
0	2150	706.067888153948	1
0	2160	711.400673348688	1
0	2161	711.783395417266	0
0	2174	716.48989410675	1
0	2177	717.284976910566	0
0	2190	721.901227162218	1
0	2202	727.113608617216	0
0	2207	727.749789111082	1
0	2222	733.743167299776	1
0	2238	738.228795895002	0
0	2240	738.417494215073	0
0	2246	739.623631795867	1
0	2262	745.311774490633	1
0	2267	747.614976657205	0
0	2274	750.043162989545	0
0	2280	750.701475165783	1
0	2282	751.65480710403	0
0	2288	754.857256711225	0
0	2293	756.178706117904	1
0	2303	761.853232585823	1
0	2316	767.571667509034	0
0	2321	767.799875263821	1
0	2334	772.646072717033	0
0	2339	773.391869462093	1
0	2346	776.52551400149	0
0	2350	778.418840569326	0
0	2354	778.686296770813	1
0	2360	782.981659466749	0
0	2365	784.149089259559	1
0	2370	787.455123854682	0
0	2376	789.404644030377	1
0	2377	789.71446455852	0
0	2386	795.045955020467	1
0	2396	800.358161699025	1
0	2414	806.224442946024	1
0	2436	812.175250033147	2
0	2439	812.874168225794	0
0	2453	817.625052561515	1
0	2454	817.878279372581	0
0	2460	820.366597636251	0
0	2465	822.13055393577	1
0	2469	822.861787480765	1
0	2475	825.394244865162	0
0	2485	828.672993483252	1
0	2502	834.013567007843	1
0	2523	839.94039554917	2
0	2529	841.307466471451	1
0	2537	843.730211390881	0
0	2540	844.540860953623	0
0	2547	845.891633766235	1
0	2549	847.659259438512	0
0	2558	851.326127158242	1
0	2569	856.681236847418	0
0	2573	857.150287271241	1
0	2592	863.06738262856	1
0	2599	864.939336341454	0
0	2611	868.455246925117	1
0	2623	872.375557589457	0
0	2625	872.635142369775	0
0	2627	873.289129259063	0
0	2632	874.244703439759	1
0	2637	877.004058447896	0
0	2645	880.148940113136	1
0	2650	884.242413764	0
0	2655	886.080380847208	1
0	2668	891.599746647287	1
0	2672	893.110971839277	0
0	2681	896.794618097363	1
0	2682	896.835101108878	0
0	2694	902.506377071371	1
0	2709	907.664384044703	1
0	2730	913.604892742583	2
0	2751	918.807069672966	2
0	2753	919.115839724539	0
0	2761	922.110464609338	1
0	2767	924.032373906457	1
0	2771	924.04081665631	1
0	2788	929.203236482568	2
0	2806	934.268732559398	2
0	2808	934.557119259953	1
0	2817	937.49892801267	0
0	2828	939.800813575039	1
0	2835	941.992239146489	0
0	2842	943.986360158299	0
0	2846	945.010498483895	1
0	2856	948.769345947186	1
0	2863	950.149078788698	1
0	2883	955.90133586316	2
0	2893	959.094337728452	0
0	2901	961.584137260446	0
0	2905	961.621488863831	1
0	2911	964.160281688902	0
0	2919	967.272856608728	1
0	2920	967.348129915767	0
0	2934	973.057677987494	1
0	2936	973.820305962117	1
0	2949	978.191964653317	1
0	2956	980.719793141467	0
0	2959	981.264769337949	0
0	2965	983.385614475236	0
0	2969	983.86044590524	1
0	2979	988.998363287417	1
0	2995	994.202273181868	1
0	3002	996.1749781036	0
0	3005	997.301263162746	0
0	3011	999.257958552563	1
0	3014	1000.71382829849	0
0	3025	1004.888574485779	0
0	3029	1004.970067973012	1
0	3039	1010.22045190469	1
0	3046	1013.694833802288	0
0	3053	1015.541585495925	1
0	3069	1021.203449088378	1
0	3082	1024.3028504058	0
0	3088	1026.222465169495	0
0	3093	1026.689904145194	1
0	3102	1030.543403776708	0
0	3108	1032.260862821942	1
0	3116	1036.614768247699	0
0	3123	1038.147585768714	1
0	3141	1044.024556007465	1
0	3146	1045.364526875198	0
0	3161	1049.768141574688	1
0	3173	1053.822979524147	0
0	3179	1054.833774383874	1
0	3197	1059.852902783077	2
0	3209	1063.031914307499	1
0	3211	1063.570695986502	0
0	3217	1064.96616098424	1
0	3223	1066.717834781269	0
0	3228	1067.540940741073	0
0	3230	1067.952936143146	0
0	3236	1070.693279067982	1
0	3247	1076.04922190867	1
0	3262	1081.700791508887	1
0	3276	1085.727637278379	0
0	3283	1086.742836260466	1
0	3286	1087.814813876403	0
0	3296	1091.559791075411	0
0	3302	1092.009767540727	1
0	3311	1096.970602598039	0
0	3315	1097.721155561503	1
0	3321	1099.417778650411	0
0	3323	1099.670741041653	0
0	3326	1101.429332183204	0
0	3330	1103.300892356081	1
0	3336	1109.29379323823	1
0	3344	1114.475186883235	1
0	3345	1114.485374045322	0
0	3357	1120.018877762133	1
0	3371	1125.178591762665	1
0	3391	1131.138895362146	2
0	3405	1135.214098961786	0
0	3412	1136.981667840384	1
0	3418	1138.674869184376	1
0	3422	1139.157240140132	0
0	3435	1142.871069786601	1
0	3438	1144.29778994864	0
0	3452	1148.628556004256	1
0	3458	1150.528056764507	0
0	3468	1153.731390258294	1
0	3482	1158.348185493377	0
0	3490	1159.707306192486	1
0	3499	1162.906036081255	0
0	3506	1164.662279225532	0
0	3513	1165.576317401832	1
0	3514	1165.889428592168	0
0	3526	1171.230218540873	1
0	3527	1171.49528756516	0
0	3531	1174.005279175119	0
0	3539	1177.099293661533	1
0	3548	1182.485587770232	0
0	3553	1182.94780644355	1
0	3563	1188.543048220683	1
0	3578	1193.931254735446	1
0	3596	1199.003818910333	2
0	3597	1199.588211986001	1
0	3599	1200.111319950777	0
0	3612	1203.882966312924	0
0	3616	1204.130092824806	1
0	3629	1209.183874928622	1
0	3649	1214.274532864798	2
0	3654	1215.778444323103	0
0	3667	1220.020037035454	1
0	3674	1222.153579848234	1
0	3684	1225.224263004489	0
0	3689	1225.60577308619	1
0	3707	1230.707197703883	2
0	3708	1231.03493785916	0
0	3721	1236.088154082646	0
0	3725	1236.210682315748	1
0	3726	1236.60517211619	0
0	3739	1241.735308485102	1
0	3748	1246.031450674051	0
0	3755	1247.527119732924	1
0	3757	1248.982229834188	1
0	3771	1252.694683919657	1
0	3774	1253.691588730782	0
0	3778	1254.376144689504	0
0	3789	1258.626871120647	1
0	3804	1264.048530691766	1
0	3819	1269.091855075325	0
0	3826	1269.581366456809	1
0	3834	1272.621266330239	0
0	3838	1273.383743576704	0
0	3840	1274.07083999796	0
0	3846	1275.402795384402	1
0	3856	1280.434886024098	1
0	3869	1285.857589457414	1
0	3874	1287.540532507698	0
0	3888	1291.841662207383	1
0	3902	1296.835412636163	0
0	3907	1296.965539755763	1
0	3912	1298.802321857302	0
0	3924	1302.711006153373	1
0	3928	1303.511635559722	0
0	3942	1307.794346118577	0
0	3948	1308.642810539806	1
0	3951	1310.579770972135	0
0	3957	1312.566777993922	0
0	3962	1314.2209398502	1
0	3976	1319.727408545323	1
0	3991	1325.443231166572	1
0	3998	1327.488138619575	0
0	4007	1330.421407563029	0
0	4012	1331.03840347682	1
0	4031	1336.917804537107	1
0	4045	1341.622567031877	0
0	4051	1342.705344320041	1
0	4071	1348.094776801065	2
0	4084	1352.767099982708	0
0	4089	1353.470512980827	1
0	4108	1358.47569341841	2
0	4128	1363.958508202572	2
0	4130	1364.853136692311	1
0	4146	1368.429134451898	1
0	4151	1368.966095164883	2
0	4153	1369.448859988128	1
0	4157	1370.31613355316	1
0	4160	1371.035813434163	0
0	4167	1373.653751663395	0
0	4172	1374.038135725073	1
0	4176	1376.639295124563	0
0	4185	1379.505135434446	1
0	4191	1382.218335303242	0
0	4200	1385.158375464612	1
0	4215	1390.419345446629	1
0	4237	1395.775636748177	2
0	4242	1397.518201719271	0
0	4255	1400.92883928772	1
0	4261	1402.442694923722	0
0	4274	1406.313645073212	1
0	4288	1410.356376574024	1
0	4296	1412.024430651916	2
0	4317	1417.561145577347	2
0	4322	1418.585546529034	0
0	4328	1420.187108944636	0
0	4336	1422.58724265988	1
0	4349	1428.418619754259	1
0	4364	1433.403388445148	1
0	4369	1434.185930994805	2
0	4377	1435.955597194725	1
0	4393	1440.008113383781	2
0	4404	1444.001743173459	1
0	4411	1445.03176197526	2
0	4433	1451.024014097172	2
0	4446	1455.09181973175	1
0	4457	1456.976521066855	2
0	4472	1461.509846176249	1
0	4477	1462.013410108396	2
0	4478	1462.104368974922	0
0	4485	1464.425171040697	1
0	4495	1467.249566655372	1
0	4500	1468.308374919807	1
0	4517	1472.572757139335	2
0	4539	1478.192865608724	2
0	4558	1483.276293662841	2
0	4562	1484.89343872713	1
0	4565	1485.1400442766	1
0	4570	1486.368252187733	1
0	4573	1486.806322143061	0
0	4582	1488.434321657287	1
0	4584	1489.029963613713	1
0	4602	1493.797117824897	2
0	4616	1498.066140726666	1
0	4624	1499.79036059696	2
0	4631	1501.687176546199	0
0	4639	1504.106496160149	0
0	4645	1504.793715634381	1
0	4662	1510.576047169974	1
0	4671	1513.111174811258	0
0	4674	1513.950572429572	0
0	4683	1516.545396085594	1
0	4699	1522.345878786871	1
0	4709	1525.570322921149	0
0	4713	1526.136094745821	1
0	4721	1528.283120018195	1
0	4733	1532.531583680537	0
0	4738	1533.376026180338	1
0	4759	1538.881751535691	2
0	4775	1543.916500986086	0
0	4779	1544.223595379384	1
0	4784	1545.625509984789	0
0	4793	1549.299065190015	0
0	4797	1549.307810012715	1
0	4813	1555.220574458594	1
0	4815	1555.749929471049	1
0	4821	1557.314954409723	0
0	4831	1560.521100028184	1
0	4832	1560.863906116456	0
0	4840	1563.85064775776	0
0	4848	1565.701118582393	1
0	4850	1567.179232518645	0
0	4861	1571.465106832561	1
0	4876	1577.398360130842	1
0	4888	1581.75985514943	0
0	4895	1582.479110432322	1
0	4902	1584.638860572594	0
0	4912	1587.670431909849	1
0	4914	1588.023463989723	0
0	4927	1592.928456589113	1
0	4930	1594.04917745979	0
0	4937	1596.46127243049	0
0	4941	1598.085157094522	0
0	4945	1598.229866195236	1
0	4955	1603.963113383156	1
0	4959	1605.835679590702	0
0	4968	1609.286800532368	1
0	4984	1614.938242563977	1
0	5005	1620.353720854967	2
0	5019	1624.063112721429	0
0	5026	1625.717854899121	1
0	5037	1629.92977626424	1
0	5046	1631.33854078711	2
0	5052	1633.496412546373	0
0	5062	1636.484839900862	1
0	5067	1637.250505646342	0
0	5083	1641.690169380046	1
0	5090	1644.328332279807	0
0	5096	1646.241268876706	0
0	5102	1647.43125907937	1
0	5107	1649.453786871977	0
0	5114	1651.969503232277	0
0	5119	1653.027017250191	1
0	5128	1658.467776476871	1
0	5130	1658.754836040433	1
0	5145	1664.417714513605	1
0	5146	1664.817331254948	0
0	5167	1669.99480437464	1
0	5184	1675.582355586811	2
0	5205	1681.22283237148	2
0	5206	1681.552009694744	0
0	5218	1685.167532816295	1
0	5220	1685.832934639764	1
0	5226	1686.249108373885	1
0	5245	1691.963369262637	2
0	5249	1692.879033925478	0
0	5256	1695.978287073782	0
0	5261	1697.571551952976	1
0	5266	1699.062492379454	0
0	5276	1703.190696169622	1
0	5282	1705.999862603843	0
0	5291	1708.526466845534	1
0	5294	1709.965163742656	1
0	5306	1713.885837898589	1
0	5314	1716.912834203685	0
0	5319	1718.139922995817	0
0	5326	1719.507787404116	1
0	5327	1720.32799266465	0
0	5338	1725.149112245068	1
0	5342	1726.058685443363	0
0	5352	1730.847827663645	1
0	5367	1736.475571690826	1
0	5369	1737.189253758989	0
0	5375	1738.604669510271	0
0	5385	1742.086928255158	1
0	5387	1742.454450697055	0
0	5399	1747.653309873539	1
0	5413	1752.702171692043	0
0	5417	1752.787786002737	1
0	5433	1757.840619345895	1
0	5451	1763.136130441912	2
0	5466	1766.964843178283	1
0	5469	1767.285573904518	0
0	5476	1768.742599883117	1
0	5494	1773.788367551519	2
0	5508	1777.349415631849	0
0	5514	1778.462055253679	0
0	5520	1779.752961279825	1
0	5529	1783.728410260753	0
0	5536	1784.871525210795	1
0	5546	1789.021547497016	1
0	5552	1789.928732805421	1
0	5569	1794.423575954627	0
0	5576	1795.382041660837	1
0	5592	1800.395121632959	0
0	5595	1800.482431754587	0
0	5599	1800.926569435979	1
0	5604	1802.338023546385	0
0	5614	1806.819799469319	1
0	5617	1807.57441860775	0
0	5622	1809.798952203711	0
0	5627	1812.018437653548	1
0	5634	1816.367730911124	0
0	5638	1817.24392289552	1
0	5650	1822.602058798076	1
0	5651	1823.320315124352	0
0	5657	1826.908444542438	0
0	5662	1828.015397046927	1
0	5672	1833.883214783391	1
0	5686	1839.128896852724	1
0	5701	1843.907855872414	0
0	5708	1844.692433842459	1
0	5727	1850.190092976206	2
0	5730	1851.037851184608	0
0	5746	1856.091519773706	1
0	5749	1856.687655570685	1
0	5764	1861.12846770743	2
0	5779	1864.996227338097	0
0	5785	1866.47737747361	1
0	5787	1866.714266552358	1
0	5804	1871.965588041815	2
0	5806	1872.469503505972	0
0	5808	1872.665952464683	0
0	5817	1877.017690816197	1
0	5829	1882.140080278741	1
0	5835	1882.927277875833	1
0	5836	1883.191117990414	0
0	5840	1884.436054170832	0
0	5849	1888.512300224278	1
0	5867	1893.838934796864	1
0	5876	1896.145322746366	0
0	5888	1899.242876752747	1
0	5889	1899.686010713342	0
0	5894	1901.331350475668	0
0	5904	1905.074783338235	1
0	5905	1905.478824807449	0
0	5907	1906.133045882919	0
0	5914	1910.171506895452	1
0	5927	1915.821519223509	1
0	5928	1916.318134474104	0
0	5936	1920.056156883017	0
0	5940	1920.861911976479	1
0	5948	1925.247949388113	0
0	5953	1926.332078969806	1
0	5959	1930.880315629416	0
0	5964	1931.669851564105	1
0	5971	1935.82509888441	0
0	5976	1937.436644112693	1
0	5986	1942.87660545367	1
0	6002	1948.049345704496	1
0	6013	1951.133083847122	0
0	6017	1952.705968426076	0
0	6022	1953.396267166596	1
0	6032	1957.006680471126	0
0	6039	1958.415963085836	1
0	6057	1964.071416010617	1
0	6067	1966.878489614235	0
0	6070	1967.482639102617	0
0	6076	1969.348899563544	1
0	6087	1975.000596746222	0
0	6092	1975.275660920192	1
0	6095	1976.405614445684	0
0	6105	1981.244915722173	1
0	6114	1983.815432322563	0
0	6123	1987.031378933231	1
0	6124	1987.316990932569	0
0	6136	1992.630676386415	1
0	6150	1997.825510703496	1
0	6159	2000.328372018764	0
0	6169	2003.122589240552	1
0	6191	2008.882368661466	2
0	6196	2010.228338074174	0
0	6208	2013.971015475227	1
0	6215	2016.176603279428	1
0	6221	2017.832642684927	0
0	6230	2019.428541705946	1
0	6237	2021.548641186442	0
0	6240	2021.859223612703	0
0	6248	2024.982842465166	1
0	6258	2029.067580469419	0
0	6262	2030.356128580172	0
0	6267	2030.764899740929	1
0	6273	2034.579453049929	0
0	6278	2035.81349618477	1
0	6289	2041.579673679082	1
0	6303	2046.808518428358	1
0	6312	2049.884937717116	0
0	6324	2052.4316660543	1
0	6343	2057.828306472279	0
0	6347	2058.017675409795	1
0	6360	2061.830389914803	0
0	6364	2062.763245162905	0
0	6369	2063.738156271636	1
0	6383	2069.458484928593	0
0	6385	2069.59103815619	0
0	6389	2069.703254781667	1
0	6392	2070.965188947276	0
0	6400	2075.682929314909	1
0	6403	2076.991466663665	0
0	6410	2081.090025535788	1
0	6421	2087.035704873738	1
0	6425	2088.386133145545	0
0	6430	2090.270584490851	0
0	6435	2092.789249262077	1
0	6446	2098.182981733469	1
0	6450	2099.588288389382	0
0	6458	2103.195452159041	1
0	6474	2108.348803261764	1
0	6493	2113.633334287678	2
0	6500	2116.357341575789	1
0	6504	2116.832030620079	0
0	6512	2119.25957201538	1
0	6519	2121.454833564235	0
0	6530	2124.276844019306	1
0	6537	2126.269310874633	0
0	6540	2127.230743755707	0
0	6550	2129.422098609156	1
0	6565	2134.803400645268	1
0	6571	2136.388288365447	0
0	6584	2140.100381918953	1
0	6601	2145.239104264186	2
0	6608	2147.201517281009	0
0	6614	2149.09483655426	0
0	6619	2150.311569464396	1
0	6633	2155.806458851558	1
0	6640	2157.903234073079	1
0	6655	2161.139819395033	2
0	6676	2166.628225066004	2
0	6688	2169.9060395055	0
0	6695	2171.858335459608	1
0	6705	2175.129442909387	0
0	6716	2177.515553070003	1
0	6717	2177.848740120072	1
0	6720	2178.27437076648	1
0	6722	2178.967652536698	0
0	6736	2183.007373269185	1
0	6756	2188.48359717266	2
0	6763	2190.80580665218	1
0	6769	2192.09750928253	0
0	6778	2194.42254299694	1
0	6785	2196.996320470239	0
0	6794	2199.476835057142	1
0	6815	2205.055772005583	2
0	6816	2205.769030628494	1
0	6826	2207.809370593169	0
0	6835	2210.445962479341	1
0	6841	2212.760484894277	0
0	6852	2216.113444800259	1
0	6871	2221.148288383152	2
0	6879	2223.046050036445	0
0	6885	2224.590538391499	0
0	6889	2226.51221166784	0
0	6893	2226.726908018816	1
0	6904	2232.517330527309	1
0	6915	2237.699392613024	1
0	6921	2238.378277227752	1
0	6944	2244.08866846329	2
0	6950	2245.59719013819	0
0	6964	2249.688711341474	1
0	6972	2251.766047388784	0
0	6976	2253.087944105849	1
0	6980	2254.111838030749	0
0	6984	2254.93384190882	1
0	7001	2260.391295049343	1
0	7021	2266.257422361526	2
0	7042	2271.729620143076	2
0	7055	2275.386201702878	1
0	7063	2276.880116091346	2
0	7075	2280.119290889132	0
0	7077	2280.549783800029	1
0	7085	2282.469702103179	1
0	7087	2283.110293295117	0
0	7099	2287.584670468353	0
0	7103	2287.678447042596	1
0	7109	2290.044862585379	0
0	7117	2293.096285589043	1
0	7118	2293.687289204918	0
0	7130	2298.689396952283	1
0	7142	2303.403158188568	1
0	7147	2303.925732097825	1
0	7161	2308.812313120001	0
0	7168	2309.41438450199	1
0	7173	2311.105191007494	0
0	7187	2314.693343024938	1
0	7192	2315.769146564419	0
0	7205	2319.758312443276	1
0	7218	2324.035726226055	0
0	7225	2324.79244594649	1
0	7242	2330.299664756287	0
0	7246	2330.450850765692	1
0	7254	2333.222023321552	0
0	7265	2335.932759202557	1
0	7267	2336.533355697413	0
0	7285	2341.915961163823	1
0	7300	2346.87523896061	0
0	7307	2347.134468480951	1
0	7318	2351.415807982446	0
0	7325	2352.596301432938	1
0	7345	2358.06254195702	2
0	7352	2360.807255462633	0
0	7365	2363.984146565904	1
0	7368	2365.251860947121	0
0	7383	2369.851864015923	1
0	7403	2375.065821668373	2
0	7411	2377.657234729158	1
0	7424	2380.938024880604	2
0	7435	2383.9141683837	1
0	7446	2386.670441779082	2
0	7457	2389.998939841409	0
0	7466	2391.724784078316	1
0	7484	2397.183543219471	2
0	7487	2398.127381435484	1
0	7495	2401.252350431527	1
0	7504	2402.687745513867	2
0	7522	2407.945953923168	1
0	7527	2408.412247613312	2
0	7537	2410.873702638205	1
0	7548	2413.561123586965	2
0	7560	2417.552133480208	1
0	7570	2419.087332470582	2
0	7571	2419.375693861867	0
0	7580	2422.101994486651	0
0	7588	2424.554852269131	1
0	7590	2425.331568210856	1
0	7605	2430.388350232278	1
0	7609	2431.253123713082	1
0	7613	2432.331260661485	0
0	7626	2436.132673872176	1
0	7636	2439.063855449675	0
0	7647	2441.372401149485	1
0	7649	2442.199442478019	0
0	7666	2446.70971334121	1
0	7676	2449.771620598279	0
0	7683	2451.330234244822	0
0	7687	2451.859379658949	1
0	7695	2454.705612078665	0
0	7702	2457.666768000236	1
0	7712	2462.364398397864	0
0	7718	2463.210557133898	1
0	7720	2465.067317492337	0
0	7723	2465.988842372674	0
0	7729	2468.966944179039	1
0	7740	2474.490705108277	1
0	7747	2477.644652118914	0
0	7756	2479.937219598338	1
0	7772	2485.590838943383	1
0	7784	2489.558470906579	0
0	7792	2491.516904740369	1
0	7804	2495.349938894862	0
0	7812	2496.882991092287	1
0	7819	2499.423619932386	0
0	7829	2502.493717304904	1
0	7832	2503.341187786086	0
0	7847	2507.95629582322	1
0	7858	2511.455195298193	0
0	7862	2512.121127892527	0
0	7866	2513.088555927396	1
0	7881	2518.963130262455	1
0	7885	2519.964992346017	0
0	7901	2524.673737511046	1
0	7910	2527.708994748775	0
0	7919	2530.09211841855	1
0	7928	2533.702394581641	0
0	7938	2535.978798926117	1
0	7947	2538.685291955487	0
0	7959	2541.697215094006	1
0	7968	2544.239883110865	0
0	7977	2547.193502158633	1
0	7983	2548.801199967748	0
0	7986	2549.262606787735	0
0	7996	2553.093373192482	1
0	7997	2553.188823718934	0
0	8010	2558.852123586236	1
0	8016	2561.945153714164	0
0	8023	2564.439654328868	1
0	8030	2566.576602007502	0
0	8040	2570.250271626756	1
0	8055	2575.652217309697	1
0	8072	2580.751455154743	2
0	8074	2581.109544884537	0
0	8089	2586.388978852665	1
0	8094	2588.024659386145	1
0	8110	2591.865830872914	2
0	8129	2597.256773497451	2
0	8140	2599.332769115464	0
0	8142	2600.358827651952	1
0	8144	2600.588148177376	0
0	8147	2601.248225131196	1
0	8152	2602.623388782849	1
0	8170	2607.773257977802	1
0	8183	2612.150265920681	0
0	8188	2613.114876998828	1
0	8205	2617.490744179354	0
0	8212	2618.457631327219	1
0	8229	2623.726009406622	2
0	8230	2623.756506026383	0
0	8249	2629.471655172303	1
0	8255	2631.172056320944	1
0	8271	2634.871395991657	2
0	8274	2635.537067327307	0
0	8280	2637.454749088856	1
0	8292	2640.461310311927	1
0	8294	2640.928732732437	0
0	8311	2646.315866426806	1
0	8331	2651.35201559333	2
0	8346	2655.729341193111	0
0	8354	2656.998651190902	1
0	8361	2659.696202518077	0
0	8372	2662.476372918588	1
0	8387	2666.916177771876	1
0	8389	2666.998048927293	0
0	8396	2668.339858460016	1
0	8401	2669.390003288521	0
0	8415	2673.84101765301	0
0	8420	2674.050867911204	1
0	8437	2679.714414764204	1
0	8441	2680.712539885668	0
0	8448	2682.812838885822	0
0	8456	2685.060510084041	1
0	8458	2685.588415487214	0
0	8470	2690.763090721805	1
0	8484	2696.213568968473	1
0	8508	2702.040500445997	2
0	8522	2706.393244656509	1
0	8527	2707.843064561028	2
0	8542	2712.689432484222	1
0	8548	2713.236208609778	2
0	8550	2714.016789851485	0
0	8552	2714.043296704076	0
0	8554	2714.116579752424	0
0	8561	2718.542026833871	1
0	8571	2723.641837192706	1
0	8589	2729.434668392881	1
0	8604	2734.05866679678	1
0	8611	2734.965720567393	2
0	8620	2737.550472895042	0
0	8625	2739.274355964625	1
0	8631	2740.185169032316	1
0	8639	2742.619508155512	0
0	8649	2745.655383839977	1
0	8670	2751.087776631589	2
0	8677	2753.346294737775	1
0	8686	2755.994170802071	0
0	8693	2756.920710254933	1
0	8701	2759.142868939676	0
0	8703	2759.267723837524	0
0	8711	2762.131234667969	1
0	8729	2768.077074030654	1
0	8739	2771.756154528127	0
0	8746	2773.41982865148	1
0	8749	2774.103231889901	0
0	8755	2775.71109738155	0
0	8763	2779.412197353791	1
0	8778	2785.242635577226	1
0	8787	2787.756701646729	0
0	8802	2790.604317078374	1
0	8811	2793.310760122265	0
0	8814	2794.198373196188	0
0	8820	2796.04809465586	1
0	8833	2801.075749407063	0
0	8838	2802.021823990632	1
0	8845	2805.732720209988	0
0	8849	2806.783303268261	0
0	8853	2807.258753426148	1
0	8866	2812.765045493849	1
0	8882	2817.919024835581	1
0	8891	2821.00012920006	0
0	8901	2823.177753693664	1
0	8913	2826.624300551492	0
0	8920	2828.430858700776	1
0	8927	2830.727423732991	0
0	8937	2833.984923263087	1
0	8945	2836.4844625739	0
0	8954	2839.03294494935	1
0	8956	2839.425265375299	0
0	8970	2844.046179841279	1
0	8985	2848.035409607581	0
0	8993	2849.551557334146	1
0	9001	2852.322004641995	0
0	9012	2855.453276280553	1
0	9016	2856.427911891374	0
0	9024	2859.452831372042	0
0	9031	2861.340527674423	1
0	9046	2866.437474391896	1
0	9064	2871.623040398357	2
0	9071	2873.811397053774	0
0	9079	2877.036682462326	1
0	9084	2877.380504615845	1
0	9103	2882.4813913412	2
0	9121	2888.006369572373	2
0	9126	2888.885117660981	0
0	9140	2893.451052910656	1
0	9141	2893.683098183602	1
0	9149	2895.993209832238	0
0	9158	2898.809800519383	1
0	9178	2904.294105066574	1
0	9182	2904.63399293321	2
0	9201	2909.758413768847	2
0	9207	2911.741256665329	1
0	9214	2913.686117461542	0
0	9217	2914.758791268461	0
0	9224	2915.710716393086	1
0	9240	2921.029881746982	1
0	9242	2921.854738242465	0
0	9244	2922.238656502341	1
0	9258	2926.905052025345	1
0	9259	2927.438270360356	0
0	9276	2932.570279109998	1
0	9277	2932.975841646673	0
0	9290	2937.002889891979	0
0	9292	2937.067765344175	0
0	9296	2937.618504969411	1
0	9304	2942.417229335065	0
0	9309	2943.06065143436	1
0	9320	2948.255695824053	1
0	9330	2952.850338766475	0
0	9336	2953.864470208071	1
0	9348	2959.412527854795	0
0	9352	2959.671344631592	1
0	9369	2965.14980590158	1
0	9374	2966.399252910407	0
0	9390	2970.626164600494	1
0	9409	2975.828272713822	2
0	9410	2975.851814249073	0
0	9413	2976.306387494326	1
0	9420	2979.195910350775	0
0	9428	2981.59072224331	1
0	9443	2986.855249758353	1
0	9450	2988.850564261207	0
0	9463	2992.366511062262	1
0	9475	2996.306092440742	0
0	9478	2997.076749116308	0
0	9484	2998.05871142704	1
0	9487	2999.151127596745	0
0	9493	3001.421900119641	0
0	9499	3003.538953539459	1
0	9506	3007.382565520364	0
0	9509	3008.321774740014	0
0	9513	3008.581006595176	1
0	9521	3013.744760542885	1
0	9532	3019.363924022308	1
0	9550	3025.320479373224	1
0	9558	3027.907696635006	0
0	9560	3028.429615702605	0
0	9568	3030.949364484064	1
0	9574	3033.116272417486	0