version 3
run General-1-20240430-20:30:43-5480
attr configname General
attr datetime 20240430-20:30:43
attr datetimef 20240430-203043
attr experiment General
attr inifile omnetpp.ini
attr iterationvars $0=true
attr iterationvarsd true
attr iterationvarsf true-
attr measurement $0=true
attr network Supermarket
attr processid 5480
attr repetition 1
attr replication #1
attr resultdir results
attr runnumber 1
attr seedset 1
config network Supermarket
config repeat 10
config num-rngs 10
config **.use_random_strategy true

vector 0 Supermarket queueSizeOverTime:vector ETV
attr recordingmode vector
attr source updateQueue
attr title queueSizeOverTime
vector 1 Supermarket customerWaitingTime:vector ETV
attr interpolationmode none
attr recordingmode vector
attr source customerFinished
attr title "cust waiting time"
0	7	5.84881769307	1
0	14	11.147578851553	1
0	23	16.781227083179	2
0	33	21.806398816873	2
0	34	22.355547326036	1
0	46	27.071964944481	1
0	61	32.160304759397	2
0	63	33.436001648662	1
0	69	35.152253331965	1
0	78	37.844123186079	1
0	82	38.926474403126	0
0	88	40.541766866111	0
0	95	42.848071453395	2
0	103	47.511482847623	1
0	109	48.738887983608	1
0	117	51.80343573296	0
0	125	54.460643296364	2
0	129	56.283630912658	0
0	135	60.188078807202	1
0	149	65.902654592647	2
0	162	71.31632197043	1
0	169	73.732325290213	1
0	178	76.90022333758	2
0	196	82.005625166698	2
0	211	87.071188434493	3
0	212	87.622652943479	1
0	215	88.530463267932	1
0	226	91.053155667147	2
0	232	92.836644251831	1
0	235	93.525453180074	0
0	250	98.448587588733	2
0	264	103.712425213074	1
0	268	103.76782367914	2
0	280	108.462950777959	1
0	285	109.10332332761	3
0	298	114.217307690531	1
0	308	116.688727661386	0
0	322	120.070350684458	4
0	331	123.123572833255	3
0	340	125.696637834422	2
0	341	125.737082152393	0
0	352	131.428372457623	4
0	354	131.892229394405	1
0	359	134.236651863553	0
0	366	136.627319997176	1
0	372	140.976925610916	3
0	380	142.459309763275	1
0	386	145.419311812146	0
0	394	148.21395745594	2
0	406	154.086349914316	1
0	423	159.411861552158	2
0	441	165.287606047466	3
0	443	166.03881305072	2
0	451	168.91829196166	2
0	457	170.381066426169	1
0	474	176.223884363659	3
0	476	176.319495842675	1
0	488	180.193581292523	2
0	497	181.607998810709	2
0	499	181.791007981986	1
0	512	185.615800312371	0
0	519	187.044352508616	2
0	533	191.74732353771	1
0	535	192.386592588503	0
0	540	192.631483431207	3
0	550	197.882857566467	1
0	555	199.478921024247	2
0	563	202.168004342588	1
0	571	203.785689322278	3
0	575	206.061886110463	2
0	586	209.158209271729	2
0	596	213.378226752859	0
0	601	214.19749103603	1
0	613	218.530042980103	1
0	618	219.324462882244	1
0	637	224.559501480312	2
0	648	227.298461906261	1
0	661	230.333331778181	2
0	680	235.536378395046	3
0	681	235.597104437887	2
0	684	236.125717194517	1
0	700	239.702342657492	0
0	702	240.212555420466	0
0	706	240.851305270103	1
0	723	245.965954070446	3
0	738	251.009051424918	4
0	745	253.964504118317	3
0	753	256.565569610802	2
0	761	259.58415267535	0
0	763	260.159027756193	1
0	770	261.916527835654	1
0	787	267.522105397891	1
0	808	272.656668396901	2
0	810	273.08856767416	0
0	821	276.471822827829	2
0	827	277.918884058019	1
0	848	283.425291884227	2
0	855	285.975284192595	1
0	867	288.757735978348	2
0	868	289.062378212228	1
0	885	293.879588537267	0
0	889	294.315314169043	3
0	890	294.325030248496	0
0	899	297.737258649554	1
0	907	299.692754836521	4
0	914	304.301627440029	3
0	919	304.833330621012	2
0	932	310.812149764039	3
0	933	310.898378037622	2
0	945	316.307198393857	3
0	957	321.413131454261	4
0	965	325.517021526007	3
0	970	326.731404258404	1
0	982	330.727812029538	2
0	990	332.309540693183	2
0	998	335.813885472598	1
0	1010	338.164234838216	1
0	1013	339.10476653139	2
0	1021	341.48687131703	1
0	1031	343.62876564404	3
0	1044	348.301829299891	0
0	1051	349.347368452232	1
0	1054	350.401992243831	0
0	1068	355.06816704059	2
0	1083	360.418823437765	4
0	1090	363.298344090114	0
0	1092	364.578910367329	1
0	1097	365.909378117183	5
0	1100	366.980207451744	4
0	1111	371.504239067901	1
0	1125	376.554716741899	2
0	1133	380.029254053718	0
0	1137	381.211889298989	3
0	1141	381.662780520506	1
0	1146	384.462682288371	1
0	1156	387.162011204986	4
0	1170	392.527376174461	1
0	1172	393.116959010257	3
0	1179	394.988204308901	0
0	1188	397.530292259995	2
0	1190	398.475683096098	0
0	1202	403.517181379721	1
0	1217	408.986966670026	4
0	1227	412.900271191733	3
0	1235	414.949163557031	1
0	1244	417.349372453985	1
0	1258	420.643390531187	2
0	1277	425.692018536619	4
0	1278	426.144170555284	0
0	1288	429.562589527579	3
0	1293	431.200707992195	2
0	1297	431.641688524746	1
0	1307	434.439284645834	0
0	1315	436.693017829094	1
0	1319	436.868461865932	2
0	1334	442.790694650729	2
0	1339	444.04429870891	1
0	1350	447.856192503591	2
0	1356	449.6795068651	1
0	1366	452.581699282395	1
0	1370	452.993565755897	1
0	1395	458.971465019743	2
0	1412	464.542369881996	0
0	1416	464.549129272114	1
0	1426	467.244615863544	0
0	1428	467.619919991353	1
0	1435	469.427366627503	1
0	1440	470.110686639325	1
0	1462	475.927863343154	2
0	1483	481.636713169283	3
0	1491	484.025465735702	0
0	1502	487.009775565472	2
0	1507	489.80783141416	1
0	1512	491.423903498333	2
0	1518	492.703665631824	2
0	1534	498.117463439238	1
0	1540	500.102432182879	0
0	1552	503.283665583004	3
0	1568	509.048040343216	1
0	1583	513.594072910841	0
0	1588	514.138147078688	3
0	1593	516.165061976877	2
0	1605	520.100113678957	1
0	1610	521.518962514007	0
0	1613	521.72269433958	2
0	1625	525.689461390256	3
0	1636	529.601228399668	0
0	1641	530.816335809418	3
0	1648	534.904001394752	2
0	1654	536.112239569194	1
0	1669	541.142924407033	1
0	1679	544.572336581535	2
0	1685	545.935964322884	0
0	1691	546.88778848597	2
0	1706	552.137674719097	3
0	1710	553.645612046588	2
0	1720	557.30574752018	3
0	1724	558.778626273621	1
0	1733	562.530542498222	2
0	1738	562.904799317943	2
0	1755	568.753308500864	3
0	1763	572.105173051361	1
0	1772	574.534369118747	4
0	1789	580.081412443428	2
0	1792	580.660342856193	1
0	1800	583.380277291758	3
0	1812	585.83187704813	1
0	1814	586.434056721743	0
0	1816	587.043679717932	1
0	1828	590.993487625385	2
0	1847	596.506610333922	2
0	1849	596.957208418173	1
0	1857	600.311138047025	2
0	1865	601.70544536901	3
0	1868	603.247119670739	1
0	1878	606.734015623577	2
0	1883	606.880259263565	2
0	1893	610.479540282862	0
0	1900	612.566181233156	3
0	1912	618.308855811603	3
0	1924	623.882729082139	1
0	1934	627.910020426851	2
0	1941	628.99945858843	1
0	1949	631.396789797352	2
0	1964	634.715289458403	2
0	1965	635.155516404312	1
0	1972	636.612500746737	1
0	1986	640.557971332226	2
0	2005	646.131747563141	3
0	2015	648.989125284951	0
0	2021	651.242563881215	1
0	2027	651.727741491752	2
0	2043	657.078954995148	3
0	2052	660.667873381758	2
0	2059	662.175810997844	2
0	2061	662.366048909146	2
0	2063	662.957683060552	1
0	2067	664.93874282355	0
0	2076	667.569230107129	3
0	2082	670.215280897106	1
0	2090	672.953260880201	4
0	2096	676.686904398263	3
0	2099	678.543939986736	2
0	2104	678.782662804243	3
0	2109	681.922921439406	0
0	2115	684.290263714506	1
0	2126	689.651053332961	2
0	2136	694.695313449022	1
0	2139	695.550777630886	1
0	2142	697.136876476468	0
0	2151	700.160446778643	4
0	2154	701.398957780449	3
0	2162	705.34136738	1
0	2179	710.64635877661	1
0	2186	712.907418238703	0
0	2190	714.223459150065	0
0	2196	715.715392117394	1
0	2211	721.628973847493	4
0	2213	722.385096108079	0
0	2220	724.488251137432	3
0	2228	726.75918563549	1
0	2242	732.162655479513	2
0	2252	736.022884496495	1
0	2257	737.26132637193	1
0	2261	738.437543668672	0
0	2275	742.535621191147	2
0	2287	747.481168022501	0
0	2293	747.944613398523	4
0	2301	752.444214014454	3
0	2307	753.738922459776	1
0	2324	759.307597566866	4
0	2339	764.430107549536	1
0	2345	766.132689964733	1
0	2347	766.205881543114	0
0	2358	769.738681606022	2
0	2366	772.652082676652	3
0	2376	775.249890253884	3
0	2390	780.302100244682	1
0	2410	785.322281173901	2
0	2425	790.079044715972	0
0	2427	790.294125743569	2
0	2433	790.50714872452	3
0	2435	791.114240052763	1
0	2448	796.230630360549	4
0	2457	800.058871807418	2
0	2459	800.567325171204	1
0	2465	801.385594365192	5
0	2481	806.614376691641	1
0	2492	809.928099739021	0
0	2501	811.928283175459	2
0	2508	814.747376537543	4
0	2518	817.731059113989	5
0	2524	820.034482824269	0
0	2526	820.099946410167	1
0	2536	822.780679280876	1
0	2550	828.158239229821	2
0	2551	829.214721519975	4
0	2565	833.759291126166	1
0	2577	838.24659066741	0
0	2583	839.004472346284	1
0	2584	839.421099077915	0
0	2600	844.267875512137	5
0	2615	849.652718725388	1
0	2618	851.174207218467	4
0	2638	855.62753122417	5
0	2641	857.130957745721	0
0	2646	858.894647198152	1
0	2654	860.900485859725	1
0	2674	865.947225087096	2
0	2697	871.733553885489	2
0	2699	872.357700223925	1
0	2713	876.312642622513	0
0	2719	877.561457060051	6
0	2720	877.683010782475	5
0	2725	880.146462763201	1
0	2728	880.377860701537	4
0	2736	882.75482351124	2
0	2750	887.901592321468	2
0	2767	893.624825620565	1
0	2788	899.391385748058	3
0	2789	899.501232422783	3
0	2795	900.529225358398	2
0	2798	900.830020130502	0
0	2801	901.672883027939	1
0	2809	904.106698865544	1
0	2816	905.219917122282	1
0	2819	906.288791896316	0
0	2824	908.082195079198	2
0	2832	910.229138225092	3
0	2844	914.684206836864	0
0	2850	915.940674039776	1
0	2852	916.596036736398	2
0	2855	917.781388985465	0
0	2865	921.363226292896	2
0	2876	926.747348139769	1
0	2890	931.855678869652	3
0	2900	935.952595130315	1
0	2905	936.914501240252	4
0	2920	941.985774688663	2
0	2923	943.106502711666	3
0	2937	947.072744094309	1
0	2939	947.702170609972	2
0	2958	952.377317449319	2
0	2969	955.450104194583	1
0	2979	957.616743227009	2
0	2993	961.315521723366	1
0	2995	961.890365546575	1
0	3003	962.832730937058	2
0	3007	964.236858152325	0
0	3010	964.674516829205	0
0	3020	968.477958684562	1
0	3027	970.92081243185	1
0	3039	974.203612466816	2
0	3048	977.760661928344	0
0	3051	979.221814888886	1
0	3055	979.320617409431	3
0	3064	984.33690873476	0
0	3068	984.835381157006	1
0	3069	985.040489239855	2
0	3082	990.61265937589	3
0	3093	995.695279667395	1
0	3094	996.027134906741	0
0	3107	1001.203966537266	4
0	3110	1002.924142789799	3
0	3120	1006.900274808993	2
0	3121	1007.327940021413	2
0	3132	1012.517020677225	1
0	3138	1014.734118586996	0
0	3149	1018.310290003903	3
0	3158	1023.085465770339	1
0	3164	1024.273647508593	1
0	3173	1028.123756435476	0
0	3179	1029.680398817882	4
0	3188	1033.779104366086	3
0	3192	1034.74530579919	4
0	3206	1040.302577747274	2
0	3216	1045.673460117666	1
0	3220	1046.103429559395	5
0	3231	1051.80435996294	6
0	3239	1056.213585692576	5
0	3244	1057.504253950212	1
0	3247	1058.913963769804	0
0	3257	1062.804964247402	2
0	3271	1068.453295731927	1
0	3289	1073.599811413335	1
0	3307	1078.751531061028	2
0	3321	1083.030390263421	4
0	3323	1083.283465006865	1
0	3328	1083.91187909037	2
0	3335	1085.607512967556	0
0	3349	1089.632678992126	1
0	3355	1092.378586315444	1
0	3367	1095.116877650155	2
0	3388	1100.598078939144	2
0	3393	1101.754154450738	1
0	3395	1101.773807996546	1
0	3412	1106.213581052853	2
0	3419	1107.940064852126	3
0	3425	1109.723411501513	1
0	3436	1112.025876945129	2
0	3437	1112.401476075301	1
0	3440	1112.994798454468	1
0	3443	1113.534828476852	0
0	3457	1117.652020615071	4
0	3472	1122.91613375676	5
0	3480	1125.647024586344	0
0	3488	1128.329438413038	6
0	3496	1131.953976397518	5
0	3502	1133.67208153383	1
0	3517	1139.301812248781	6
0	3532	1144.978335151345	0
0	3536	1145.237482246022	1
0	3541	1147.347367261535	5
0	3554	1150.915298543182	1
0	3573	1156.133206979382	2
0	3579	1158.713547403806	4
0	3584	1159.386534919378	3
0	3593	1162.033564375957	2
0	3601	1164.300759170913	1
0	3609	1167.180668957077	0
0	3615	1167.259377102378	4
0	3623	1170.67326471094	1
0	3630	1172.412574029771	2
0	3648	1178.322804666368	1
0	3668	1183.410297717677	2
0	3679	1186.244003825586	3
0	3681	1186.849129017687	1
0	3684	1187.122033638772	1
0	3695	1189.239886733714	2
0	3709	1193.712719475629	0
0	3715	1194.327015094703	2
0	3724	1198.643628257217	1
0	3730	1199.622279896412	2
0	3738	1202.852580841527	1
0	3745	1204.753751494002	2
0	3753	1208.061730026848	2
0	3757	1208.689547783344	1
0	3764	1210.07034218359	2
0	3766	1210.304027657504	1
0	3781	1215.342868360236	1
0	3788	1217.644326499445	0
0	3799	1220.406935271585	3
0	3816	1225.963555959763	1
0	3826	1229.283684929838	1
0	3829	1229.762082305282	0
0	3836	1231.455041898426	4
0	3842	1233.477042740676	3
0	3846	1234.83159365168	0
0	3852	1236.962671273167	1
0	3867	1241.999993286107	2
0	3883	1247.656947505439	3
0	3898	1252.757118897058	4
0	3909	1257.289241321163	0
0	3915	1257.792461643239	1
0	3922	1260.740629304202	3
0	3932	1263.526355683814	4
0	3948	1269.440943967329	1
0	3953	1270.863547338536	3
0	3957	1272.17941341527	0
0	3967	1274.478274200588	4
0	3985	1280.443159517377	4
0	4003	1285.711047705041	2
0	4007	1288.189272155879	1
0	4013	1290.235207229969	3
0	4017	1290.730395164584	1
0	4030	1294.42995196675	0
0	4039	1295.764297677214	1
0	4047	1298.890877496583	3
0	4054	1300.958768286753	0
0	4061	1301.68805512298	4
0	4063	1302.869657669798	2
0	4076	1307.51351964824	3
0	4085	1311.058984164158	0
0	4088	1311.866828638828	2
0	4093	1312.766698793984	1
0	4107	1317.800754567153	3
0	4117	1321.757970270484	3
0	4121	1322.494197701229	0
0	4127	1323.472011467685	4
0	4131	1325.506542860649	2
0	4141	1329.099873819632	1
0	4153	1333.62553215412	0
0	4159	1334.621923384966	5
0	4171	1340.518076225893	1
0	4184	1346.027811253796	1
0	4188	1346.170071077078	1
0	4208	1351.432280790774	4
0	4212	1351.607735024077	2
0	4229	1356.916840182628	2
0	4250	1362.445123635476	3
0	4254	1363.7675498993	1
0	4266	1367.865012486009	0
0	4270	1367.971956858888	5
0	4282	1372.448374531131	4
0	4285	1372.839718723091	0
0	4290	1373.35557221506	4
0	4294	1376.059822800696	3
0	4299	1378.45388972074	3
0	4304	1379.194418801937	1
0	4318	1384.444842732988	1
0	4341	1389.853229398384	2
0	4354	1394.818052290023	2
0	4360	1395.439403518114	3
0	4367	1396.912189873994	1
0	4386	1401.250337742513	4
0	4393	1403.486568184231	0
0	4395	1403.667486524687	3
0	4406	1406.84715515353	2
0	4422	1412.138309584244	4
0	4439	1418.100147653849	5
0	4448	1422.040287825758	4
0	4457	1423.603722396785	1
0	4462	1424.602160159515	2
0	4466	1426.007384732724	1
0	4471	1426.707921893698	0
0	4481	1429.4104135465	1
0	4494	1433.133975772553	1
0	4504	1434.830929304951	2
0	4505	1434.887063346579	0
0	4519	1440.193683255128	3
0	4524	1440.812933222636	3
0	4541	1446.793857230584	1
0	4546	1448.513041166486	2
0	4561	1452.082002815337	3
0	4577	1457.234147413413	2
0	4580	1458.252472269129	1
0	4598	1462.407197134581	4
0	4601	1463.737376377814	0
0	4606	1465.209233013579	3
0	4618	1468.204607264383	4
0	4624	1471.268400263405	3
0	4632	1473.853512419632	2
0	4636	1475.611433513591	1
0	4639	1476.762558667935	2
0	4646	1479.139152627683	3
0	4664	1484.66553958297	4
0	4666	1485.084701188388	2
0	4668	1485.676491545412	3
0	4670	1485.812122958492	0
0	4679	1490.122708346008	3
0	4690	1495.962595828588	1
0	4701	1500.247367926423	2
0	4704	1500.684408712446	2
0	4708	1501.340906687326	3
0	4714	1503.817464413367	2
0	4716	1504.264849291198	1
0	4725	1506.986395347876	3
0	4727	1507.505333973808	0
0	4731	1508.867425230342	0
0	4736	1512.027585282003	4
0	4740	1515.588814701665	3
0	4746	1517.994631035499	1
0	4755	1523.616708155967	1
0	4756	1523.841481180758	0
0	4769	1528.895797756746	2
0	4779	1534.183310370905	1
0	4783	1535.554971513468	2
0	4792	1539.423464342965	1
0	4797	1539.582725768689	3
0	4813	1544.826600863611	1
0	4832	1550.796840397421	2
0	4833	1550.975481727522	1
0	4837	1551.857902231989	0
0	4846	1555.210055449058	0
0	4851	1555.811329705886	2
0	4853	1557.052618067261	2
0	4855	1558.334443467566	1
0	4858	1558.843185737393	0
0	4864	1561.331403996109	1
0	4865	1562.956383797007	1
0	4875	1566.477874956804	1
0	4890	1571.556265969074	2
0	4903	1575.523691755149	0
0	4910	1577.394436517044	1
0	4923	1582.496465978458	1
0	4938	1586.776366165851	1
0	4944	1587.850250538451	2
0	4946	1588.028614662367	0
0	4956	1592.2056353856	0
0	4958	1592.379170305114	0
0	4963	1593.562272114924	3
0	4966	1595.723196934687	2
0	4968	1596.551848547312	1
0	4974	1598.75675028587	1
0	4982	1604.662804650155	0
0	4986	1604.67303187378	1
0	4998	1610.364115820744	2
0	5000	1611.2235054928	0
0	5002	1611.389293354714	1
0	5004	1613.004880591307	0
0	5008	1616.184271007555	1
0	5016	1621.711417885043	2
0	5024	1626.96568898462	1
0	5034	1632.149027535238	1
0	5039	1635.169712407293	0
0	5045	1637.209228058241	0
0	5050	1638.031858158542	1
0	5059	1643.070151557692	1
0	5068	1646.088853208127	1
0	5078	1648.919613605377	1
0	5081	1649.559774852718	0
0	5092	1653.792620794277	0
0	5096	1653.933072163968	1
0	5114	1659.412620861095	1
0	5135	1665.190466460551	2
0	5145	1667.461579158099	0
0	5148	1668.7348749654	0
0	5156	1670.952371764009	3
0	5166	1676.153501460807	1
0	5169	1677.440323935251	2
0	5179	1681.517536752287	0
0	5183	1681.565635229474	3
0	5194	1686.646477634799	1
0	5200	1688.845364116844	0
0	5209	1692.404391656177	4
0	5220	1697.42130146759	2
0	5234	1703.059777371366	5
0	5236	1704.029711848836	4
0	5242	1707.322508188559	1
0	5244	1708.070305771789	3
0	5248	1708.346668066005	2
0	5259	1713.448801174075	1
0	5261	1714.527818879476	2
0	5274	1718.589399901232	2
0	5284	1721.684238741535	1
0	5290	1723.927822122128	0
0	5295	1724.329595780013	3
0	5299	1726.7629590399	2
0	5309	1730.173954251934	3
0	5317	1734.319817006602	2
0	5321	1735.233806616407	1
0	5340	1740.769760149544	3
0	5353	1746.010448446743	2
0	5358	1746.298746259197	3
0	5364	1748.213782087798	1
0	5376	1751.938375412033	2
0	5377	1751.984282935751	0
0	5387	1755.97456252064	2
0	5393	1757.256265028392	1
0	5399	1758.960868152571	1
0	5411	1762.427858052787	2
0	5422	1767.617084078039	0
0	5426	1767.839858911012	3
0	5436	1772.894964832359	1
0	5449	1777.319401415079	2
0	5455	1778.069624340872	3
0	5471	1783.392440479261	3
0	5481	1786.725441086354	2
0	5490	1789.030448907999	3
0	5492	1789.918020698835	2
0	5496	1790.818895501212	1
0	5500	1792.344006712796	2
0	5507	1794.666233543785	2
0	5511	1796.47616119847	1
0	5518	1798.864109485422	0
0	5524	1800.068015398936	3
0	5529	1802.568934645515	0
0	5535	1806.041781981954	4
0	5542	1811.784372726235	5
0	5549	1816.905050472136	1
0	5554	1819.980672191029	4
0	5557	1821.605661191292	0
0	5562	1821.961234453845	1
0	5572	1827.31036999171	5
0	5573	1827.357352110685	0
0	5578	1830.487542147881	4
0	5583	1832.830544680602	5
0	5590	1838.418036634115	1
0	5602	1844.072634837137	2
0	5606	1846.762503253545	4
0	5613	1849.425612182136	1
0	5629	1855.213824072632	3
0	5643	1860.881050398585	1
0	5666	1866.785864375078	4
0	5686	1871.8602312829	2
0	5694	1874.512156010153	3
0	5700	1875.303913625439	3
0	5710	1876.992522651342	4
0	5712	1877.793008430172	1
0	5724	1881.303138654459	2
0	5731	1882.592956309685	2
0	5733	1882.959731456018	1
0	5750	1887.806269361184	2
0	5753	1888.528851888276	3
0	5755	1888.646605975472	1
0	5776	1893.739583922795	4
0	5795	1899.141381802515	2
0	5803	1901.552556352824	3
0	5808	1902.666358090249	0
0	5816	1904.789591736405	1
0	5824	1907.010167782438	1
0	5828	1907.894526353821	2
0	5831	1908.746822961268	1
0	5842	1910.728041223495	2
0	5844	1911.249060946527	1
0	5862	1916.223857382091	2
0	5864	1916.47636600643	0
0	5879	1921.31946425793	3
0	5897	1927.073956732883	1
0	5900	1927.983142877596	2
0	5905	1929.026226549537	0
0	5910	1930.974930474431	1
0	5916	1932.474168825907	2
0	5924	1935.28161970341	1
0	5926	1935.343527617411	0
0	5932	1937.666035593965	1
0	5943	1942.137151959369	1
0	5950	1943.218633625668	2
0	5960	1947.350434502949	1
0	5968	1949.126977225079	1
0	5977	1951.824317945299	0
0	5984	1953.891717380741	0
0	5988	1954.86942481274	1
0	6000	1959.834594428668	0
0	6004	1960.268757153081	1
0	6020	1965.495117289491	1
0	6039	1970.582522390887	2
0	6049	1973.337924194184	0
0	6053	1974.200321046068	0
0	6059	1975.878286094183	1
0	6076	1981.506312135618	2
0	6091	1986.716304302227	2
0	6094	1987.676267007492	1
0	6108	1992.076900831901	1
0	6114	1994.430494175188	1
0	6116	1994.437683512583	0
0	6118	1994.73379260419	1
0	6126	1997.592178652889	0
0	6130	1997.716241220257	2
0	6143	2003.094119221217	2
0	6155	2008.811459169968	3
0	6157	2009.19827162138	2
0	6167	2014.535092777352	1
0	6172	2017.075761358846	1
0	6185	2020.364757342742	2
0	6201	2026.07013286535	3
0	6210	2029.442028736124	1
0	6220	2031.617730447104	4
0	6234	2036.628205854691	2
0	6240	2038.990866178658	0
0	6242	2039.500871525276	3
0	6250	2042.153747664079	1
0	6251	2042.734675773432	1
0	6259	2045.378839593161	2
0	6266	2047.45702670446	1
0	6287	2053.269579678321	3
0	6290	2054.050293326857	0
0	6304	2059.083437963402	2
0	6316	2064.287482356316	2
0	6320	2064.707272041369	2
0	6331	2069.39076287778	1
0	6337	2070.5795773673	3
0	6348	2075.457888891701	2
0	6353	2075.916273333378	1
0	6357	2077.335042037315	1
0	6369	2080.491272847878	0
0	6374	2080.945979392867	2
0	6390	2086.626928923664	1
0	6407	2091.671974470851	3
0	6410	2091.926449853823	0
0	6425	2097.47970938719	2
0	6429	2097.597482036811	3
0	6435	2100.319780624138	1
0	6437	2100.761520455955	2
0	6445	2102.704994381417	3
0	6461	2107.828713118576	2
0	6463	2108.273061971891	0
0	6467	2109.635894292981	2
0	6479	2113.775644539634	1
0	6483	2115.75902498585	1
0	6496	2119.662719582452	3
0	6502	2121.159241218019	2
0	6515	2125.458899727801	2
0	6529	2130.924154127731	0
0	6533	2130.940570865303	3
0	6538	2132.499464029224	1
0	6547	2136.396481299085	1
0	6563	2142.17770178524	2
0	6567	2144.025249773531	0
0	6569	2144.302070564606	2
0	6577	2147.206936354527	1
0	6594	2153.096669303264	1
0	6604	2155.68482919632	1
0	6610	2157.409937472909	0
0	6614	2158.242117901343	2
0	6623	2161.982020320381	0
0	6630	2163.354715495846	3
0	6641	2168.44644423808	3
0	6645	2171.235612751351	2
0	6653	2174.236519100387	3
0	6664	2179.6652294451	1
0	6679	2185.252275659479	1
0	6689	2188.59257950228	2
0	6695	2190.020589346074	2
0	6701	2191.185070217829	3
0	6718	2195.936748217101	1
0	6725	2196.488437422328	2
0	6746	2201.866821114682	2
0	6752	2204.035657082004	2
0	6764	2207.815272628922	1
0	6768	2207.833795318157	2
0	6771	2208.436037444752	1
0	6784	2211.812422430617	0
0	6786	2212.577287950339	1
0	6793	2213.558894142053	2
0	6796	2214.628989891157	1
0	6801	2216.840269704707	0
0	6808	2219.076545818486	1
0	6826	2224.886517924267	2
0	6843	2230.638753908464	2
0	6856	2235.309357905303	1
0	6860	2235.750189079448	3
0	6870	2240.894577175388	2
0	6875	2241.637668213119	2
0	6877	2242.792015973265	1
0	6880	2242.869675282864	1
0	6895	2247.522748366009	1
0	6901	2249.998473980473	1
0	6913	2252.557840234145	2
0	6935	2257.719089996313	3
0	6944	2259.618060307237	2
0	6955	2263.086489647179	0
0	6959	2263.584023029321	1
0	6982	2268.821257228741	2
0	6995	2272.726925303007	0
0	7002	2274.488856497231	3
0	7013	2278.512318446543	0
0	7016	2279.357354060877	2
0	7018	2280.381984169489	1
0	7022	2280.485903640986	1
0	7039	2286.306845373251	2
0	7053	2291.38340414689	3
0	7059	2293.638592866726	2
0	7070	2296.683930012175	3
0	7087	2302.042991726204	1
0	7089	2303.208733493589	0
0	7106	2308.021408732991	3
0	7115	2311.130642834363	0
0	7121	2313.04008318578	4
0	7124	2314.175276621375	2
0	7132	2318.265109126001	1
0	7134	2318.605838792874	3
0	7148	2323.290809273265	1
0	7158	2326.566932207221	1
0	7169	2328.447026021789	2
0	7170	2329.096708926038	0
0	7187	2334.048493119666	3
0	7192	2336.442198260117	2
0	7195	2337.866244226239	2
0	7198	2337.936044759826	0
0	7204	2339.205168490076	3
0	7217	2344.904398712573	1
0	7225	2347.989992669795	2
0	7235	2350.873362143535	1
0	7243	2353.798489005199	1
0	7254	2356.379473921854	2
0	7255	2356.787461855227	0
0	7274	2362.029410595085	3
0	7289	2367.472363549295	2
0	7305	2372.600792026158	3
0	7311	2375.464527477519	2
0	7316	2376.699831315445	1
0	7319	2377.445686971663	2
0	7324	2378.20343373391	3
0	7337	2383.250876096787	3
0	7347	2386.969222479043	2
0	7355	2388.914875013998	1
0	7364	2392.33929943504	0
0	7371	2394.075917192979	1
0	7385	2398.189154159406	2
0	7394	2400.056856433174	2
0	7418	2405.646763227892	2
0	7420	2405.898800648528	1
0	7426	2407.553144459859	1
0	7429	2407.938802768835	1
0	7438	2410.725925150572	2
0	7459	2416.309756216605	3
0	7462	2417.278021108136	2
0	7464	2417.399079044475	1
0	7468	2419.201290590815	1
0	7481	2422.051524840074	2
0	7498	2427.50879595197	3
0	7520	2432.985621228127	2
0	7538	2438.20973047592	4
0	7541	2439.087199977375	1
0	7543	2439.538399263182	0
0	7556	2443.222091322544	2
0	7557	2443.310794608565	3
0	7571	2448.356729648668	0
0	7575	2448.813197255147	4
0	7579	2450.725875521437	1
0	7587	2454.374733486691	1
0	7599	2459.178677504896	3
0	7603	2459.595314312273	2
0	7618	2465.137731749111	2
0	7634	2470.37271655259	1
0	7646	2473.918658183668	0
0	7649	2475.190594936617	2
0	7653	2475.584245580726	3
0	7661	2479.315256767572	2
0	7666	2480.680486140433	1
0	7670	2480.698820020084	3
0	7677	2483.347611851771	2
0	7681	2484.069162884387	0
0	7688	2486.514021941007	3
0	7701	2492.463731695211	1
0	7708	2495.64769967193	2
0	7717	2498.338439136057	3
0	7733	2504.212023943209	2
0	7737	2505.282911022674	2
0	7749	2509.432576976729	3
0	7764	2514.443026294013	3
0	7778	2519.656284526236	4
0	7779	2520.149003535754	3
0	7788	2523.556268244417	1
0	7797	2525.489351138951	4
0	7799	2525.913049118258	3
0	7812	2530.641148319946	2
0	7815	2531.779423867714	2
0	7821	2533.437802335148	1
0	7824	2534.892014083237	0
0	7831	2536.54959642609	3
0	7834	2538.138262873761	2
0	7846	2542.326401872806	1
0	7848	2543.016358915381	2
0	7851	2543.7996432552	1
0	7864	2548.033791758366	1
0	7868	2549.750431553355	0
0	7882	2553.969148662653	2
0	7895	2559.361559778931	3
0	7912	2564.482032015002	3
0	7922	2568.959374147016	0
0	7927	2569.943973177592	4
0	7928	2570.009048246791	2
0	7941	2575.532755506704	5
0	7945	2577.43171233953	4
0	7954	2580.887356115053	1
0	7957	2581.526349653505	3
0	7959	2582.449272090815	1
0	7973	2586.740457503139	1
0	7977	2588.208835085285	0
0	7990	2592.044750163578	2
0	7998	2595.691596280331	1
0	8005	2597.977810543044	2
0	8006	2598.001920625697	0
0	8020	2603.501968051786	1
0	8035	2608.970957254306	4
0	8043	2611.86633768458	3
0	8047	2613.568612608142	1
0	8056	2614.939933711909	4
0	8071	2619.968189127989	2
0	8082	2625.403509307899	0
0	8087	2625.611403680885	5
0	8095	2630.27501310561	1
0	8100	2630.69620529936	1
0	8105	2632.884277778342	4
0	8116	2636.413455495856	1
0	8121	2637.711335927612	0
0	8135	2641.86855172437	2
0	8153	2647.788500426117	1
0	8171	2653.048895382801	3
0	8178	2654.957806569187	0
0	8185	2657.42881819968	3
0	8192	2658.842049278099	4
0	8206	2664.555458325906	2
0	8214	2666.785581113549	2
0	8226	2670.030287452521	1
0	8227	2670.048198243965	1
0	8240	2674.304649327078	3
0	8247	2675.553030448513	3
0	8255	2677.238683574962	0
0	8269	2681.127663355799	1
0	8288	2686.724168367694	2
0	8292	2686.798751054344	4
0	8312	2692.388016341965	2
0	8317	2693.91036637175	1
0	8320	2694.521038452876	0
0	8331	2697.460842860642	1
0	8347	2702.896497843334	2
0	8351	2703.600012438268	1
0	8355	2704.07576316014	3
0	8362	2706.619057474787	0
0	8372	2708.149523108977	1
0	8373	2708.662678133009	1
0	8385	2712.143606030045	0
0	8393	2713.244209485141	2
0	8402	2716.830611826281	0
0	8408	2718.253299432586	1
0	8425	2724.206194157491	1
0	8446	2729.701120383584	2
0	8453	2731.743950985614	2
0	8462	2735.177928788602	1
0	8468	2735.419351029222	2
0	8476	2737.96532721551	1
0	8487	2740.751155512885	2
0	8494	2742.451184227842	0
0	8508	2746.484125797183	3
0	8516	2749.786889854597	2
0	8525	2752.325939785002	3
0	8535	2756.120913631762	2
0	8542	2757.378835478576	3
0	8543	2757.774587589213	1
0	8558	2762.808031463541	4
0	8561	2763.863327105426	0
0	8563	2764.268751148027	3
0	8573	2768.050101221317	1
0	8584	2772.78222067178	1
0	8589	2773.737287258274	2
0	8598	2776.582826743612	0
0	8606	2778.889911130314	4
0	8613	2782.034009186792	3
0	8620	2784.556243606854	1
0	8627	2787.143387389729	1
0	8632	2789.048371380321	2
0	8636	2789.71368286201	1
0	8656	2795.686585163243	2
0	8675	2800.867938403516	0
0	8679	2801.161072780855	2
0	8696	2806.167420251539	3
0	8698	2806.734166335211	1
0	8700	2807.03967667698	2
0	8715	2811.936997019231	3
0	8723	2815.481394873593	1
0	8730	2816.93862452266	2
0	8731	2817.380804971806	0
0	8738	2820.292046008294	2
0	8745	2822.702385672147	3
0	8757	2828.528418667626	1
0	8767	2832.355458425134	2
0	8770	2833.81003447821	1
0	8775	2834.287044145411	1
0	8796	2839.735817767225	2
0	8814	2845.236989611305	2
0	8829	2849.881503172579	1
0	8836	2850.705870904272	3
0	8852	2855.861371650371	2
0	8863	2858.76337187878	2
0	8873	2861.123085701849	3
0	8876	2861.757980723175	1
0	8886	2864.076017168132	1
0	8895	2866.848464097027	0
0	8899	2866.963050848582	1
0	8909	2869.734612220094	2
0	8922	2872.003766209363	2
0	8925	2872.675548132171	1
0	8933	2874.609149963139	1
0	8945	2877.224961492243	2
0	8948	2878.820514469534	0
0	8950	2878.8336888319	0
0	8959	2882.461368566622	1
0	8963	2883.806616665342	0
0	8974	2887.939336515275	3
0	8982	2893.232097086274	2
0	8984	2893.368228069167	0
0	8988	2893.88577834448	1
0	8999	2899.729156788449	3
0	9012	2905.725389053823	2
0	9022	2911.219907889852	3
0	9028	2914.444666288221	2
0	9036	2917.055745712492	1
0	9052	2922.693785353341	4
0	9062	2925.495093188842	3
0	9072	2928.210872811275	3
0	9076	2929.996743227832	2
0	9078	2930.064117901386	0
0	9088	2933.945810282845	1
0	9090	2935.120754709943	2
0	9103	2939.735819560136	1
0	9107	2939.906197727201	2
0	9124	2945.309101315923	3
0	9130	2947.101152295023	0
0	9139	2950.903358082063	4
0	9146	2954.25884551684	1
0	9153	2956.586270065288	1
0	9154	2956.734983940969	3
0	9163	2960.173406296999	0
0	9171	2961.761878750062	1
0	9173	2962.660193181258	0
0	9184	2967.083724305507	4
0	9195	2972.470866582597	1
0	9207	2977.43190308661	0
0	9213	2978.359915438582	5
0	9223	2983.825189568809	1
0	9224	2984.004858854355	4
0	9233	2987.721406531762	0
0	9240	2988.894025879687	1
0	9246	2990.887425838628	0
0	9249	2992.240471249576	3
0	9256	2994.300288099803	1
0	9261	2996.342862522825	2
0	9272	2999.779624579482	3
0	9288	3005.054415126572	4
0	9305	3010.447306178518	2
0	9310	3012.002280197579	0
0	9312	3012.56655976212	1
0	9319	3015.727318702273	5
0	9322	3017.825159693499	4
0	9326	3019.272960418378	0
0	9332	3021.164010906599	1
0	9341	3026.341777707224	1
0	9347	3029.300918642438	0
0	9354	3031.522619134055	1
0	9365	3036.525678630343	0
0	9370	3037.40780992341	1
0	9386	3043.351542817203	1