version 3
run General-11-20240428-16:41:48-11298
attr configname General
attr datetime 20240428-16:41:48
attr datetimef 20240428-164148
attr experiment General
attr inifile omnetpp.ini
attr iterationvars $0=false
attr iterationvarsd false
attr iterationvarsf false-
attr measurement $0=false
attr network Supermarket
attr processid 11298
attr repetition 1
attr replication #1
attr resultdir results
attr runnumber 11
attr seedset 1
config network Supermarket
config repeat 10
config seed-set 1
config num-rngs 10
config **.use_random_strategy false

vector 0 Supermarket queueSizeOverTime:vector ETV
attr recordingmode vector
attr source updateQueue
attr title queueSizeOverTime
vector 1 Supermarket customerWaitingTime:vector ETV
attr interpolationmode none
attr recordingmode vector
attr source customerFinished
attr title "cust waiting time"
0	7	5.771320643136	1
0	13	11.265910571441	1
0	18	14.219549483036	0
0	25	16.291082305135	1
0	36	21.974900731817	1
0	42	25.009764853515	0
0	45	25.799831760698	0
0	51	27.696656044573	1
0	58	31.779687568779	0
0	63	33.280557411723	1
0	74	38.346120679518	1
0	81	41.184236847796	0
0	90	43.665356769925	1
0	92	44.943251652178	0
0	100	48.792591988574	0
0	104	49.397091393126	1
0	110	53.363686538652	0
0	115	54.994673685403	1
0	127	60.387202933896	1
0	142	65.743453263072	1
0	165	70.782735027373	2
0	174	73.865462226908	0
0	182	76.015376087511	1
0	197	79.373475177563	1
0	199	79.487767032347	0
0	201	80.31267214811	0
0	208	81.277591748629	1
0	212	83.499488010652	0
0	223	87.144083391642	1
0	228	89.515231992468	0
0	238	92.722219826421	1
0	256	98.443018414779	1
0	267	100.768657335314	0
0	269	100.791003619671	0
0	276	103.551082193386	1
0	282	106.147558448023	0
0	287	108.544785303645	0
0	292	109.020867483691	1
0	302	114.269479989075	1
0	319	120.194836864714	1
0	335	124.627335061088	0
0	342	126.012013568543	1
0	349	128.478531461676	0
0	352	129.149668089582	0
0	359	131.102120304015	1
0	371	135.237042820081	0
0	376	136.526646640967	0
0	380	136.774053338217	1
0	391	142.37310513598	1
0	401	146.564151869273	0
0	408	147.920148460661	1
0	424	153.094962355216	1
0	426	154.066623326624	0
0	433	156.283188520931	0
0	442	158.810793225189	1
0	456	164.162006728585	1
0	469	168.213937534487	0
0	471	168.70232194965	0
0	473	168.723474654369	0
0	477	169.419309615857	1
0	491	174.884442945478	1
0	505	180.398537466536	0
0	511	180.798024675577	1
0	512	181.751799841182	0
0	523	186.337053871482	1
0	540	191.702906550142	1
0	559	196.887774100761	2
0	562	198.276671616245	0
0	567	199.302107415279	0
0	576	201.937394267648	1
0	592	207.599987159019	1
0	596	209.076005112729	1
0	614	213.386315957412	2
0	636	219.024351042231	2
0	646	221.684244789184	0
0	654	224.095624490642	1
0	655	224.338230940629	1
0	676	229.696578698001	2
0	685	232.02977045707	0
0	693	234.955991309954	1
0	697	235.205265567872	1
0	717	240.755926353392	2
0	726	243.312097325692	1
0	733	244.891108383778	0
0	740	246.404257837917	1
0	756	251.730610772152	1
0	760	251.885459126906	2
0	774	256.9644178648	0
0	779	257.228102247698	1
0	795	261.428876203954	0
0	800	262.23787222407	1
0	806	263.482248931194	0
0	812	265.132717537112	0
0	820	267.325000585059	1
0	828	271.516922425598	0
0	834	272.801685556073	1
0	850	277.839007569013	1
0	853	278.785303917713	1
0	863	281.865796766246	0
0	872	282.906862875448	1
0	894	288.830620321214	2
0	917	294.726773162141	2
0	923	296.610657538637	1
0	926	297.069016246359	0
0	929	297.376291958965	1
0	938	299.856813580265	1
0	940	300.064715827699	0
0	945	301.633211432842	0
0	955	305.453630991282	1
0	963	309.505052638126	0
0	969	311.260322140997	1
0	971	312.059499842116	0
0	983	316.54846772575	1
0	987	318.354748082348	0
0	997	322.197372880999	1
0	1015	327.959439683475	1
0	1018	329.188136194138	0
0	1031	333.233507272557	1
0	1033	333.727129576265	0
0	1048	338.62836557301	1
0	1069	343.993769331372	2
0	1090	349.234007417925	2
0	1095	351.1041625822	1
0	1098	351.701427775088	1
0	1102	352.340339288003	0
0	1112	354.941216110487	1
0	1130	360.142345807285	2
0	1132	360.348002231216	0
0	1135	361.264517395293	0
0	1138	362.229123536382	1
0	1142	364.446036076523	0
0	1147	365.780821711061	1
0	1157	370.921420438218	1
0	1169	375.625230277774	0
0	1176	376.732558077204	1
0	1185	380.33041960106	0
0	1193	382.426488747823	1
0	1204	387.253051106705	0
0	1207	388.04314840597	0
0	1211	388.242116270357	1
0	1223	393.362794016258	1
0	1238	398.950285969771	1
0	1244	400.192980138007	0
0	1253	403.368575382166	0
0	1255	403.494080245266	0
0	1261	404.855099946264	1
0	1270	410.289849871773	1
0	1275	412.025426913405	0
0	1278	413.021100133894	0
0	1284	415.517288790786	1
0	1296	420.91750088381	1
0	1302	423.90455730772	0
0	1309	425.902760623374	0
0	1313	426.659948471471	1
0	1324	431.7994911694	1
0	1341	437.438831557756	1
0	1347	439.965036183249	0
0	1350	440.318030985425	0
0	1352	440.386799364935	0
0	1359	443.144207080364	1
0	1369	448.395348223861	1
0	1370	448.967038180916	0
0	1381	454.019182301828	1
0	1401	460.010119050279	1
0	1420	465.957050471337	2
0	1442	471.773782757114	2
0	1443	471.847697187101	1
0	1468	477.563857619421	2
0	1470	478.636784407314	1
0	1481	481.645335816082	0
0	1489	483.288956443317	1
0	1491	484.340946989371	0
0	1509	489.032473244242	1
0	1510	490.168583476452	1
0	1521	493.117023142755	0
0	1528	494.700072512732	1
0	1531	495.927324578287	0
0	1545	500.064352716555	1
0	1563	505.432657232278	2
0	1584	511.136843653864	2
0	1593	514.032278016794	0
0	1596	514.340494679756	1
0	1600	515.626749694234	0
0	1602	515.85320818832	1
0	1607	516.297885832845	1
0	1608	517.106241403151	0
0	1619	521.417952087245	1
0	1621	522.205641960027	0
0	1631	526.645234380619	0
0	1635	526.860383051683	1
0	1636	527.245548395677	0
0	1645	532.421919283227	1
0	1649	534.621454353797	0
0	1655	537.627419988627	1
0	1666	543.44841133198	1
0	1680	549.192924075762	0
0	1684	549.323118772826	1
0	1686	549.944445958597	0
0	1693	553.324592689054	0
0	1698	554.889967439466	1
0	1708	560.546835588527	1
0	1719	565.429562918378	0
0	1724	565.667307824598	1
0	1733	570.092285122144	0
0	1735	570.82575519651	0
0	1740	571.486818185079	1
0	1750	577.004588822837	1
0	1762	581.250432728675	0
0	1768	582.464594694323	1
0	1769	583.185977652789	0
0	1780	588.400828334971	1
0	1790	593.511517278736	0
0	1795	593.923571330963	1
0	1801	596.364603553087	0
0	1803	596.792267823361	0
0	1809	599.020304777196	1
0	1818	604.029394724641	1
0	1829	609.18662236666	0
0	1835	609.747625370279	1
0	1853	615.730908064174	1
0	1855	616.536990039517	0
0	1871	621.397240540714	1
0	1881	624.002788580023	0
0	1885	625.450546159178	0
0	1889	627.028112770992	0
0	1893	627.204644163608	1
0	1899	630.294187952417	0
0	1901	630.812771786938	0
0	1905	632.941061286957	1
0	1911	638.409942579924	1
0	1917	642.282230352054	0
0	1922	643.671656631402	1
0	1930	647.641920495548	0
0	1934	649.128259294669	1
0	1945	655.074701123874	1
0	1946	655.186555225173	0
0	1958	660.449611373482	1
0	1959	660.742122192404	0
0	1971	666.184548845052	1
0	1976	669.273760158921	0
0	1979	669.901568042001	0
0	1985	671.956493166511	1
0	1990	675.305478041411	0
0	1995	677.343635443601	1
0	2008	683.333755573959	1
0	2024	688.683050417344	1
0	2044	694.578251430302	2
0	2050	696.202989539019	0
0	2054	697.421830283478	0
0	2062	700.308358091864	1
0	2077	705.774497649868	1
0	2078	706.342102894213	0
0	2080	706.965318094012	1
0	2091	711.356957510814	0
0	2095	711.489916032183	1
0	2110	716.969642853367	1
0	2114	718.172151223526	0
0	2121	719.941321207797	0
0	2129	721.983367888027	1
0	2144	727.398332284534	1
0	2163	732.64535784908	2
0	2182	737.803326865662	2
0	2185	738.595553719443	0
0	2187	738.837312232473	1
0	2200	742.857787866382	1
0	2217	747.490848560356	0
0	2224	748.018155086557	1
0	2232	750.326079716092	1
0	2246	753.366485005715	2
0	2255	756.372610443857	0
0	2261	758.442275979674	0
0	2265	758.508964858954	1
0	2274	762.395752744983	1
0	2282	763.879752623155	1
0	2301	768.95848788112	2
0	2309	771.438402627596	1
0	2317	773.882067303876	0
0	2323	774.244506657129	1
0	2336	777.842567423247	0
0	2340	779.339554510545	0
0	2344	779.656901886925	1
0	2360	785.4889008503	1
0	2384	791.290385850711	2
0	2392	793.986142209039	0
0	2403	796.795727260417	1
0	2412	799.805529581272	0
0	2422	802.657824774512	1
0	2442	808.003392248188	2
0	2448	810.146389784415	0
0	2450	810.180904937098	1
0	2457	812.374173109194	1
0	2464	813.360012485885	1
0	2476	817.52541447187	0
0	2483	818.456660768256	1
0	2488	820.063280098029	0
0	2503	824.298866871518	1
0	2515	828.042555624394	0
0	2518	828.875811413519	0
0	2523	830.03491464677	1
0	2531	832.724326978794	0
0	2534	834.132732702075	0
0	2539	835.949235008338	1
0	2550	840.981121726807	1
0	2551	841.15899539984	0
0	2564	846.131835767889	0
0	2568	846.164269960493	1
0	2571	848.905809901544	0
0	2577	851.460293930264	1
0	2586	856.475818619838	1
0	2602	861.907799582237	1
0	2617	867.003992582911	2
0	2628	870.046563857593	0
0	2634	871.695795941639	1
0	2638	872.062058726332	1
0	2649	876.097289102158	0
0	2659	877.785353046848	1
0	2667	881.250427739469	0
0	2671	881.994163232049	0
0	2677	883.31926493813	1
0	2694	889.218688502449	1
0	2711	894.485584244372	2
0	2719	896.517019797938	0
0	2723	897.335630935042	0
0	2731	899.458071257809	1
0	2736	900.484827576445	1
0	2750	905.625363441191	1
0	2763	910.458416171262	0
0	2769	910.862731880981	1
0	2783	915.823399200111	0
0	2787	916.164577854571	1
0	2801	920.809449381899	0
0	2807	921.178968504776	1
0	2828	927.156619638211	2
0	2829	928.030232388066	0
0	2844	932.615134091589	1
0	2863	938.603626762058	2
0	2866	939.036340052503	1
0	2883	943.846491076292	2
0	2901	948.71581550921	0
0	2903	948.830448333995	0
0	2908	949.230386413641	1
0	2924	954.625007742557	1
0	2927	955.576599270344	1
0	2948	960.585671008338	2
0	2953	961.656703880412	1
0	2967	965.616002100759	2
0	2968	965.787388027768	0
0	2975	967.828320831185	0
0	2984	970.980886345736	1
0	3002	976.539943121613	1
0	3003	976.921254217398	1
0	3016	980.967585414654	0
0	3021	981.666109614081	1
0	3023	982.084884207122	1
0	3044	987.299603716943	2
0	3064	992.636335761759	2
0	3068	993.251906033147	0
0	3085	998.242517449434	1
0	3105	1003.863499796025	2
0	3108	1004.364914205399	1
0	3123	1008.617262508495	1
0	3125	1008.844316957992	0
0	3129	1009.358655334457	1
0	3131	1010.07614043961	1
0	3149	1015.245353097568	2
0	3163	1019.116455921678	0
0	3166	1019.80227718049	0
0	3168	1020.014404410621	1
0	3173	1020.747143849737	1
0	3188	1025.819211556117	1
0	3201	1029.608502519209	0
0	3209	1031.440339352709	1
0	3228	1037.086185187108	2
0	3230	1038.193019792095	1
0	3247	1042.329587782274	2
0	3255	1044.493260166264	0
0	3264	1047.85380147468	1
0	3271	1049.845164028703	0
0	3273	1050.517516748522	1
0	3280	1052.628558867731	0
0	3286	1053.733770827303	1
0	3290	1054.936491706067	0
0	3300	1059.45693681087	1
0	3315	1064.507240329875	1
0	3336	1069.829879858304	2
0	3357	1075.279947231064	2
0	3368	1078.533381239169	0
0	3378	1081.065793713095	1
0	3384	1083.242802708065	1
0	3392	1085.326105549122	1
0	3400	1086.625485426985	2
0	3424	1091.752003346809	2
0	3430	1093.772856718052	0
0	3440	1096.959639256243	1
0	3444	1097.042309181771	1
0	3466	1102.647460388724	2
0	3485	1108.034086139877	0
0	3487	1108.408668569526	1
0	3491	1108.514363583649	1
0	3492	1109.063231375658	0
0	3498	1110.326958404509	0
0	3504	1111.881106818333	1
0	3507	1112.892803872594	0
0	3512	1113.758232767467	1
0	3522	1118.817587890668	1
0	3538	1124.611832802423	1
0	3552	1129.713165331871	0
0	3556	1129.823518565862	1
0	3577	1135.251184243016	2
0	3595	1141.182902818784	2
0	3608	1144.568483768386	1
0	3613	1145.619565946289	1
0	3620	1146.966702319454	2
0	3639	1152.061296552891	2
0	3643	1153.323412370757	0
0	3645	1153.709714584873	1
0	3650	1155.171646423411	0
0	3658	1157.189312945591	1
0	3664	1160.634358967543	0
0	3668	1161.733463175368	0
0	3673	1162.917287791153	1
0	3680	1166.965824000194	1
0	3688	1168.866331469738	1
0	3703	1174.520336776744	1
0	3710	1177.55677284848	0
0	3721	1180.49980856502	1
0	3740	1186.004277002071	2
0	3760	1191.38119185274	2
0	3766	1192.861308124736	1
0	3772	1194.710364856879	0
0	3775	1195.077784949338	1
0	3779	1196.355383563209	0
0	3784	1196.54408325721	1
0	3798	1201.599653069865	1
0	3806	1204.028596949653	0
0	3817	1206.914376826728	1
0	3838	1212.518914562188	2
0	3839	1213.030820365299	0
0	3856	1217.896946213445	1
0	3862	1220.0387007671	1
0	3872	1222.969257111899	0
0	3876	1223.151481808633	1
0	3878	1223.560211540438	0
0	3886	1226.121471264171	0
0	3889	1227.191742938598	0
0	3894	1228.375673739244	1
0	3904	1233.478864316134	1
0	3918	1239.358681076443	1
0	3920	1239.887259459243	0
0	3937	1244.576238214741	1
0	3959	1250.303476260979	2
0	3980	1255.494744392116	2
0	3987	1257.316707267431	0
0	3989	1257.670476153382	1
0	3991	1258.230268196907	1
0	3997	1259.634106408227	0
0	4002	1260.658668405613	1
0	4007	1262.881545242275	0
0	4016	1266.037342743719	1
0	4030	1271.421637509488	1
0	4047	1277.13033068716	2
0	4056	1280.288650361825	0
0	4065	1282.707341348291	1
0	4068	1283.610266912036	1
0	4087	1288.552963336003	2
0	4098	1292.003919829153	0
0	4107	1293.572446689713	1
0	4111	1294.824808248789	1
0	4118	1296.0745235635	0
0	4129	1299.437294719513	1
0	4135	1301.604204840496	0
0	4142	1303.060048602411	0
0	4148	1304.638825180713	1
0	4163	1309.951158386195	1
0	4180	1315.109447206609	2
0	4182	1315.297221339194	1
0	4188	1316.811881934763	0
0	4190	1316.919090331767	0
0	4200	1320.599692737922	1
0	4216	1326.07266703365	1
0	4219	1326.943457318939	0
0	4227	1329.392211991833	0
0	4236	1331.916583501739	1
0	4241	1333.649614746105	0
0	4243	1334.061853880068	0
0	4248	1336.985543403547	1
0	4251	1338.421210923354	0
0	4258	1342.540716700261	1
0	4273	1348.139026167109	1
0	4287	1353.513913835637	1
0	4300	1357.137623004969	0
0	4310	1359.40702515096	1
0	4311	1359.879942816921	0
0	4327	1364.952255850896	1
0	4339	1368.844561754148	0
0	4346	1370.117030966334	1
0	4368	1375.960871401714	2
0	4371	1376.717244543372	1
0	4379	1378.603451140115	0
0	4389	1381.61646920513	1
0	4400	1384.369579428695	0
0	4410	1386.659671946667	1
0	4427	1392.506937205797	2
0	4432	1393.593661097	0
0	4441	1396.539507381507	1
0	4448	1397.692160216166	1
0	4454	1399.736183616689	0
0	4458	1400.798982774728	0
0	4460	1400.852250744244	0
0	4466	1403.594931628095	1
0	4479	1409.360874606535	1
0	4489	1413.148446688668	0
0	4496	1414.617701217538	1
0	4507	1419.796520010574	1
0	4522	1424.342016516493	0
0	4529	1425.140545591019	1
0	4535	1427.494832308505	0
0	4546	1430.993734963477	1
0	4562	1435.908591936115	0
0	4565	1436.482992652111	0
0	4570	1436.6436580387	1
0	4574	1438.234282480675	0
0	4583	1442.302948104223	1
0	4599	1447.927376869606	1
0	4606	1450.187484192434	0
0	4615	1453.38445040619	0
0	4617	1453.743228083365	0
0	4621	1453.819582186179	1
0	4635	1459.591520058229	1
0	4649	1464.856114576809	1
0	4665	1470.367530435795	0
0	4670	1470.849247070501	1
0	4692	1476.284881780628	2
0	4695	1476.718795368104	0
0	4704	1480.359991258133	0
0	4707	1480.950140927808	1
0	4711	1481.605471561901	1
0	4729	1487.352773365337	1
0	4740	1490.439953758735	0
0	4743	1490.807703454634	0
0	4751	1493.274608307989	1
0	4765	1498.135251590638	0
0	4769	1498.549131420679	1
0	4784	1504.040781189228	0
0	4789	1504.180449676705	1
0	4801	1509.549152141908	1
0	4809	1512.520335618412	0
0	4820	1514.845614739932	1
0	4833	1518.762055616132	0
0	4835	1519.017034202935	0
0	4841	1520.288031605311	1
0	4850	1523.258878987172	0
0	4853	1524.613455113611	0
0	4858	1525.806816866394	1
0	4869	1531.425939430721	1
0	4881	1536.082711622822	0
0	4887	1536.458552052272	1
0	4901	1541.724752276675	1
0	4919	1547.369284221909	0
0	4923	1547.480745998449	1
0	4925	1548.060465516994	0
0	4930	1549.832931659305	0
0	4935	1551.348497386444	0
0	4940	1552.758491066988	1
0	4953	1558.713153595343	1
0	4968	1564.23670771509	1
0	4984	1568.667291455207	0
0	4989	1569.746310249209	1
0	5004	1574.476778474177	0
0	5009	1574.88972336357	1
0	5015	1576.433431671472	0
0	5028	1580.163562438921	1
0	5046	1584.984252414675	0
0	5050	1585.232364976783	1
0	5064	1589.811192910773	0
0	5070	1590.364893039693	1
0	5089	1595.806849268502	2
0	5099	1599.083728297037	0
0	5108	1600.971199920638	1
0	5111	1601.920051986239	0
0	5127	1606.538774083606	1
0	5140	1610.259638954425	0
0	5147	1611.552306784787	1
0	5151	1612.643738750258	1
0	5167	1616.988121366133	2
0	5189	1622.770795887806	2
0	5196	1625.23260806315	0
0	5199	1625.863485547718	0
0	5206	1627.890384436124	1
0	5219	1633.105858537606	1
0	5221	1633.667303784175	1
0	5243	1639.08517934103	2
0	5258	1642.895315083909	1
0	5264	1644.555329042027	1
0	5268	1644.640282548736	2
0	5269	1644.948446967291	1
0	5290	1650.30025373423	2
0	5298	1652.585817333312	1
0	5307	1655.054653999052	0
0	5311	1655.348636928485	1
0	5331	1660.377001452497	2
0	5348	1665.511913099447	0
0	5352	1665.825456875148	1
0	5363	1669.034218759392	1
0	5374	1671.583936404208	2
0	5376	1672.15285430989	0
0	5384	1675.004968919213	0
0	5392	1677.282742744316	1
0	5400	1680.00681125932	0
0	5408	1682.812315346445	1
0	5420	1688.349592883254	1
0	5424	1688.357371245981	1
0	5442	1693.834617125108	2
0	5453	1697.24314119446	0
0	5464	1699.363854603148	1
0	5484	1705.172967253025	2
0	5496	1709.178620990369	1
0	5503	1710.355717167729	2
0	5504	1710.485141174989	0
0	5507	1711.02694913803	1
0	5520	1715.717190181842	1
0	5527	1718.789704740053	0
0	5539	1721.568647660088	1
0	5548	1723.930021778567	1
0	5559	1727.113332802436	2
0	5575	1731.097806035078	0
0	5583	1733.021789304918	1
0	5600	1738.191350202082	2
0	5607	1740.176476500463	1
0	5616	1742.766454748	0
0	5622	1743.755336883949	1
0	5628	1745.404123148534	1
0	5642	1749.134256189695	2
0	5654	1753.098141392699	0
0	5657	1753.538066645276	0
0	5663	1755.049523384782	1
0	5673	1758.445836626342	1
0	5675	1758.645563669156	0
0	5684	1760.781677857047	1
0	5689	1762.514586996985	0
0	5699	1766.764095967175	1
0	5710	1770.966217843006	0
0	5715	1772.35806926969	1
0	5729	1777.584230149403	1
0	5752	1782.612881292362	2
0	5758	1784.03413945251	0
0	5763	1785.45227265824	0
0	5771	1787.807973283582	1
0	5781	1792.268166675005	1
0	5787	1793.640702413867	1
0	5807	1799.183722191729	2
0	5810	1800.543886580975	1
0	5824	1804.054242834804	0
0	5829	1804.719248506712	1
0	5840	1808.087145510136	0
0	5848	1810.168551344431	0
0	5852	1810.25086638006	1
0	5862	1814.834103001986	0
0	5867	1815.874130846938	1
0	5875	1819.226271638302	0
0	5877	1819.392728819285	0
0	5880	1820.938161603413	0
0	5884	1821.734225054277	1
0	5887	1824.982433785108	0
0	5891	1827.383874832891	1
0	5897	1832.558887564816	1
0	5910	1838.100838787161	1
0	5915	1840.310064709168	0
0	5920	1842.517007580615	0
0	5925	1844.098078010842	1
0	5935	1849.979475006699	1
0	5950	1855.768503230886	0
0	5954	1855.943987814715	1
0	5970	1861.887411201145	1
0	5976	1863.871988996519	0
0	5987	1867.206373450119	1
0	5996	1869.756179250316	0
0	6005	1872.284140619688	1
0	6022	1877.040150303283	0
0	6027	1877.900913177064	1
0	6029	1878.264330633339	0
0	6036	1880.957096311852	0
0	6045	1883.402878930798	1
0	6051	1885.743908229176	0
0	6060	1888.835002204409	1
0	6066	1891.27438450873	0
0	6069	1892.932110863861	0
0	6074	1893.988957021857	1
0	6084	1899.299783008179	1
0	6098	1904.545453341917	1
0	6106	1906.43158791855	0
0	6108	1906.509744898888	0
0	6119	1910.087714035303	1
0	6121	1910.976162623736	0
0	6129	1914.431943705195	0
0	6133	1915.284753752646	1
0	6137	1917.89192469116	0
0	6144	1921.249109911739	1
0	6145	1922.114368974238	0
0	6153	1926.5378467287	1
0	6158	1930.535068410688	0
0	6160	1930.68005662412	0
0	6164	1931.971084381227	1
0	6171	1937.39065633319	1
0	6182	1942.703227578436	1
0	6185	1943.814159676436	0
0	6188	1944.527874229715	0
0	6195	1948.048372068216	1
0	6206	1953.3626341275	1
0	6208	1954.117098205845	0
0	6219	1959.078278725973	1
0	6220	1959.211242768571	0
0	6222	1959.636144103837	0
0	6230	1964.819234070607	1
0	6241	1970.464703554061	1
0	6260	1975.625464375137	1
0	6265	1976.830430658772	0
0	6278	1980.892750740989	1
0	6296	1986.548111533054	2
0	6302	1988.049676536589	1
0	6307	1989.39260858205	0
0	6313	1990.343015475087	0
0	6319	1992.173197335803	1
0	6333	1997.863014072885	1
0	6355	2003.318207896321	2
0	6357	2004.372258263413	1
0	6370	2007.852099953111	0
0	6376	2008.95800112724	1
0	6394	2014.327312173794	2
0	6404	2017.114295096373	1
0	6411	2018.652715617335	0
0	6419	2020.182435614063	1
0	6424	2021.747437267337	0
0	6431	2024.210879206083	0
0	6438	2026.066986742203	1
0	6452	2031.693494252401	1
0	6474	2036.861709700205	2
0	6486	2041.386486993644	0
0	6488	2041.904964059361	1
0	6492	2041.941437009262	1
0	6503	2045.511200826269	0
0	6509	2047.347170547355	1
0	6512	2047.827621079174	0
0	6529	2053.051656037575	1
0	6547	2058.119574098271	0
0	6551	2058.120187489555	1
0	6572	2063.708421755588	2
0	6581	2065.727363564195	0
0	6591	2069.480080078013	0
0	6595	2069.692089635652	1
0	6609	2074.977954128065	1
0	6613	2075.513837716082	1
0	6632	2080.468223127776	2
0	6638	2082.685288007492	1
0	6647	2085.359723295324	0
0	6652	2085.742943977944	1
0	6672	2091.11214638246	2
0	6673	2091.429839557507	0
0	6680	2093.645959321883	0
0	6687	2096.690610590047	1
0	6691	2097.061145450461	1
0	6698	2099.683577885044	0
0	6702	2101.382369320381	0
0	6707	2102.091333645868	1
0	6718	2107.299827367539	1
0	6735	2112.724266087642	1
0	6756	2118.569086389622	2
0	6769	2123.434803217772	1
0	6778	2124.336225883343	2
0	6786	2127.111341932912	0
0	6799	2130.249579052214	1
0	6802	2131.377330813679	0
0	6812	2134.857314766158	0
0	6817	2135.87266985281	1
0	6834	2141.723433984216	1
0	6857	2147.25345927524	2
0	6862	2149.116661781569	1
0	6876	2152.524415116297	2
0	6878	2152.948359279315	1
0	6885	2155.402132368537	0
0	6896	2158.073482910177	1
0	6898	2158.626825645103	0
0	6913	2163.083322893834	1
0	6914	2163.360654206952	0
0	6929	2168.427568259422	1
0	6946	2173.599078783651	0
0	6952	2173.887078351347	1
0	6953	2174.938427124645	0
0	6960	2176.373151914572	0
0	6968	2179.683098520624	1
0	6972	2180.545129154583	1
0	6984	2185.323886876932	1
0	6999	2190.247790938365	0
0	7001	2190.398641955115	0
0	7006	2190.942343836191	1
0	7021	2196.440445186111	1
0	7029	2198.945142507327	0
0	7032	2199.118729649702	0
0	7036	2201.449568447198	0
0	7040	2201.492042331031	1
0	7050	2206.701824275084	1
0	7064	2212.002995172754	1
0	7076	2215.627429662976	0
0	7085	2217.348325310513	1
0	7097	2220.285178562984	0
0	7099	2220.529909026699	0
0	7106	2222.374560521921	1
0	7124	2227.949448595295	1
0	7136	2230.85243214516	0
0	7148	2233.550816042587	1
0	7149	2234.723269717193	0
0	7151	2234.835405399562	0
0	7162	2238.812857052084	1
0	7178	2244.346371525438	1
0	7180	2244.627915431982	0
0	7188	2247.987744796678	0
0	7191	2248.812226486049	0
0	7195	2249.656744081998	1
0	7207	2255.054611366713	1
0	7215	2260.271154822089	0
0	7220	2260.620557819033	1
0	7225	2262.414715110795	0
0	7231	2264.824431399122	0
0	7236	2266.578936151002	1
0	7247	2272.203118396696	1
0	7255	2275.415040157624	0
0	7263	2277.616833597428	1
0	7271	2281.643129149808	0
0	7277	2283.384709452052	1
0	7296	2289.166426242801	1
0	7297	2289.562263854203	0
0	7299	2289.894168691133	0
0	7311	2294.492858473451	1
0	7319	2298.124557157986	0
0	7328	2300.408262288903	1
0	7333	2302.589305928099	0
0	7344	2306.228443051695	1
0	7360	2312.106631734648	1
0	7361	2312.306576386685	0
0	7370	2314.781984078589	0
0	7379	2317.811281225651	1
0	7395	2323.074127000298	1
0	7401	2325.251289483865	0
0	7405	2326.100304299856	0
0	7407	2327.506393968601	0
0	7413	2329.053260381108	1
0	7425	2334.691350063782	1
0	7432	2338.291721026653	0
0	7438	2339.948639336282	1
0	7454	2345.656365131501	1
0	7474	2351.102039083613	2
0	7486	2354.115745953989	1
0	7498	2356.519761036158	2
0	7501	2358.041728039976	1
0	7507	2359.278535997617	0
0	7511	2360.449965608662	0
0	7517	2361.903990848463	1
0	7524	2364.804469379602	0
0	7532	2367.389359932167	1
0	7547	2372.523110317073	1
0	7551	2373.950791596092	0
0	7555	2374.713847078506	0
0	7563	2378.115632676526	1
0	7570	2381.934984066066	0
0	7576	2383.274512484443	1
0	7586	2387.18363563845	0
0	7592	2388.55947336625	1
0	7598	2390.725332418114	0
0	7607	2394.553170603473	1
0	7614	2398.01631802484	0
0	7621	2399.94248493645	1
0	7638	2405.831673524348	1
0	7640	2406.526734498221	0
0	7650	2410.428056388051	0
0	7656	2411.245306138653	1
0	7674	2417.144878015859	1
0	7675	2417.587846416054	0
0	7687	2422.231136540188	0
0	7693	2423.025638769386	1
0	7699	2424.976413741017	0
0	7708	2428.396338293334	1
0	7713	2430.248283037571	0
0	7724	2433.931761143269	1
0	7738	2439.119911189662	1
0	7747	2441.479067862156	0
0	7759	2444.902552540652	1
0	7779	2450.041216160176	2
0	7786	2451.637854578094	1
0	7792	2453.604477942692	0
0	7800	2455.136176070204	1
0	7809	2458.052435317315	0
0	7814	2460.208318500088	0
0	7818	2460.601465320686	1
0	7822	2461.756991056384	0
0	7828	2463.503486605484	0
0	7833	2466.433958744636	1
0	7844	2471.700663089292	1
0	7847	2473.226990454253	0
0	7859	2477.592201376805	1
0	7868	2481.769711359295	0
0	7874	2482.882909170125	1
0	7878	2485.006264804753	0
0	7888	2488.545574472525	1
0	7906	2494.101933292585	1
0	7915	2497.690946333232	0
0	7919	2498.398081265046	0
0	7926	2500.076303662273	1
0	7937	2504.699488411313	0
0	7943	2505.977313142043	1
0	7944	2506.422987903242	0
0	7955	2511.880827884894	1
0	7971	2516.978273728402	1
0	7973	2517.693767948316	0
0	7985	2521.972233666926	0
0	7990	2522.310474634176	1
0	7997	2525.460164172813	0
0	8005	2527.470116079325	1
0	8017	2531.394783839357	0
0	8020	2533.079533198621	0
0	8024	2533.333769659052	1
0	8035	2538.691972294828	1
0	8053	2544.343116233829	1
0	8056	2545.264227600891	0
0	8064	2547.705839643376	0
0	8070	2549.708331560256	1
0	8079	2553.195317936019	0
0	8087	2555.278724744689	1
0	8100	2560.536029460147	1
0	8104	2561.407934426686	0
0	8118	2565.68433471141	1
0	8140	2571.517949077772	2
0	8141	2571.808619692227	0
0	8156	2576.712041402474	1
0	8165	2579.383134461246	0
0	8172	2581.527665362118	0
0	8176	2581.817431550479	1
0	8186	2586.021149800864	1
0	8192	2587.470353946329	1
0	8195	2587.974493616614	0
0	8211	2593.136263684143	1
0	8221	2595.678379866301	0
0	8225	2596.919569548343	0
0	8229	2598.205467872678	0
0	8234	2599.129740994895	1
0	8246	2604.437507240806	1
0	8262	2610.151707276242	1
0	8274	2614.02917951311	0
0	8284	2616.056423276901	1
0	8302	2621.069144197512	2
0	8323	2626.464842297375	2
0	8325	2626.697233939086	1
0	8331	2627.784673084045	0
0	8340	2631.064474539837	1
0	8345	2631.617249230627	1
0	8348	2632.562606026191	0
0	8353	2633.919972509734	0
0	8364	2637.189613104105	1
0	8377	2642.245480951626	1
0	8383	2643.893292879925	0
0	8390	2646.345822966897	0
0	8396	2647.828956513206	1
0	8398	2648.394644386958	0
0	8408	2652.843837469357	1
0	8423	2658.395926744218	1
0	8438	2663.243161547121	0
0	8445	2663.998680708005	1
0	8462	2669.593221902738	0
0	8464	2669.735627418855	0
0	8469	2669.950389318873	1
0	8476	2672.920792118187	0
0	8485	2675.675492057583	1
0	8490	2678.088004969533	0
0	8495	2679.980864763499	0
0	8500	2681.099282138754	1
0	8512	2686.709365697351	1
0	8523	2691.598244761355	0
0	8528	2691.776113742503	1
0	8529	2692.359657827539	0
0	8539	2697.25751143776	0
0	8543	2697.279241040122	1
0	8553	2702.328991603345	1
0	8557	2703.628467915237	0
0	8567	2707.92993834173	1
0	8573	2710.528201492045	0
0	8582	2713.177696775186	1
0	8592	2717.595399083227	0
0	8596	2718.507904504898	1
0	8598	2718.828106138512	0
0	8610	2724.14308981179	1
0	8626	2729.768198785379	1
0	8644	2735.043061288779	2
0	8650	2736.763573374025	0
0	8657	2739.614272360812	1
0	8661	2740.305521248847	1
0	8666	2741.373284257838	0
0	8675	2743.9189925358	0
0	8682	2745.888892369585	1
0	8698	2751.809626718525	1
0	8702	2753.36934195087	0
0	8716	2757.612936178463	1
0	8719	2758.153015628695	0
0	8728	2761.054146956777	0
0	8734	2762.636097916643	1
0	8739	2765.028331305839	0
0	8749	2768.138182755335	1
0	8766	2773.750877555235	1
0	8768	2774.556926110069	0
0	8773	2775.890769341387	0
0	8783	2778.765393691146	1
0	8786	2780.686768942286	0
0	8797	2784.144275805456	1
0	8808	2788.645109578393	0
0	8812	2789.164128283513	1
0	8827	2794.720648184312	0
0	8831	2794.895953942332	1
0	8843	2800.162173321131	0
0	8848	2800.265069834664	1
0	8855	2802.849295097412	0
0	8862	2805.303869141042	1
0	8875	2810.736321661627	0
0	8880	2811.272778904307	1
0	8883	2812.658981546534	0
0	8893	2816.879753667637	1
0	8908	2822.516591855799	1
0	8927	2827.526165619268	2
0	8936	2829.827284412817	1
0	8952	2833.517762489858	2
0	8970	2838.790409033195	2
0	8976	2840.580464560547	0
0	8980	2841.231770070044	1
0	8989	2844.244931000992	1
0	8998	2847.054925788435	0
0	9004	2849.277928016621	0
0	9009	2849.538094848636	1
0	9014	2851.614882704694	1
0	9029	2855.457227037996	1
0	9034	2856.541213446072	0
0	9045	2860.534518732931	1
0	9067	2866.52537385771	2
0	9071	2867.172894221854	0
0	9078	2869.745729482857	1
0	9087	2871.903767192745	1
0	9089	2872.504201568906	0
0	9103	2877.593591507766	1
0	9108	2879.097410660479	0
0	9121	2883.481270188707	1
0	9124	2884.058254869316	0
0	9141	2889.314659684672	1
0	9153	2892.589002680274	0
0	9158	2894.388382741374	0
0	9164	2894.91436288623	1
0	9181	2900.621769059923	1
0	9203	2906.30434057257	2
0	9213	2908.819252099967	1
0	9220	2911.09736010631	0
0	9223	2911.674940797276	0
0	9227	2911.836242064609	1
0	9237	2916.172987993464	0
0	9243	2916.98703143956	1
0	9260	2922.2494422237	1
0	9278	2927.910549647881	0
0	9282	2928.074297874941	1
0	9296	2931.75398021879	0
0	9299	2932.67758447154	0
0	9304	2933.465608938605	1
0	9305	2933.604787605008	0
0	9316	2939.065388613388	1
0	9320	2941.206388892962	0
0	9329	2944.103060884642	1
0	9343	2949.479044956629	1
0	9347	2950.718132834307	0
0	9355	2953.276273381903	0
0	9363	2955.226452532698	1
0	9379	2961.17907604413	1
0	9398	2966.386290312287	2
0	9410	2970.630105633064	0
0	9413	2970.851131398121	0
0	9420	2972.186067423558	1
0	9429	2975.213116132778	1
0	9437	2977.868260007592	1
0	9454	2983.532285261324	0
0	9458	2983.604671283633	1
0	9459	2983.703400272535	0
0	9462	2984.260787561893	0
0	9466	2986.16089884472	0
0	9472	2988.665377906299	1
0	9473	2990.135284657597	0
0	9482	2994.484335648137	1
0	9493	3000.352318581668	1
0	9508	3005.685381897734	1
0	9513	3006.670674561183	0
0	9523	3010.754518795767	1
0	9540	3015.761012621698	2
0	9542	3016.143637493145	0
0	9555	3020.865673671485	1
0	9567	3024.081611881274	0
0	9570	3024.682732972443	1
0	9580	3026.442063637552	1
0	9584	3028.164837110329	0
0	9588	3028.520633959686	0
0	9591	3029.432378493027	0
0	9597	3031.853331135827	1
0	9604	3037.013387199382	0