version 3
run General-9-20240430-20:30:42-5481
attr configname General
attr datetime 20240430-20:30:42
attr datetimef 20240430-203042
attr experiment General
attr inifile omnetpp.ini
attr iterationvars $0=true
attr iterationvarsd true
attr iterationvarsf true-
attr measurement $0=true
attr network Supermarket
attr processid 5481
attr repetition 9
attr replication #9
attr resultdir results
attr runnumber 9
attr seedset 9
config network Supermarket
config repeat 10
config num-rngs 10
config **.use_random_strategy true

vector 0 Supermarket queueSizeOverTime:vector ETV
attr recordingmode vector
attr source updateQueue
attr title queueSizeOverTime
vector 1 Supermarket customerWaitingTime:vector ETV
attr interpolationmode none
attr recordingmode vector
attr source customerFinished
attr title "cust waiting time"
0	7	5.228803490754	1
0	13	10.387664330425	1
0	25	16.292162059108	2
0	36	21.937519523083	2
0	37	22.578687817442	1
0	47	27.271570680198	1
0	55	30.184217179779	0
0	60	31.480972411462	1
0	62	32.139792297503	0
0	67	32.52297792025	1
0	78	37.649276320125	1
0	82	39.360608943273	0
0	93	43.268087542384	1
0	107	48.438427182614	1
0	114	50.319582435185	0
0	125	53.632777366555	2
0	128	54.647284977022	0
0	132	56.031858365053	0
0	138	58.931384548313	1
0	150	64.434834752	2
0	155	67.535761288251	1
0	163	70.194383657771	1
0	173	75.205163172563	1
0	177	75.324357069797	2
0	178	75.439039918711	0
0	183	77.567486301647	1
0	191	80.373931281851	0
0	195	80.404460973107	1
0	205	86.064578138293	0
0	209	86.339463395999	2
0	216	91.390292438214	1
0	220	93.912546670645	1
0	224	95.994704744664	0
0	229	97.358554825654	2
0	237	102.99783245288	3
0	244	108.687713810477	1
0	250	111.451617158136	0
0	254	113.79796915606	2
0	258	114.28694444406	1
0	264	117.784712074209	0
0	269	119.637083066629	1
0	276	124.368570900055	1
0	281	125.097093769118	1
0	291	128.910661241273	0
0	296	130.917071403936	0
0	300	131.053591018311	2
0	307	136.690505802865	3
0	310	139.460210684802	2
0	316	142.179720829009	1
0	329	147.814892645693	1
0	338	151.712992990273	0
0	344	152.828308603261	1
0	345	153.463370646117	1
0	350	154.913849821898	0
0	358	158.031944465125	2
0	367	163.188193009468	0
0	371	163.431848088745	1
0	375	165.869070489075	1
0	385	169.090560743818	2
0	399	174.53197986912	1
0	412	179.274448220732	0
0	416	179.887200350408	1
0	423	182.571530787392	1
0	435	185.789655856556	2
0	450	190.848129369086	3
0	451	191.048228350236	0
0	464	196.80710838805	1
0	479	202.562175820116	2
0	487	205.317356734303	1
0	495	207.604721727548	1
0	499	208.688934642707	2
0	518	213.294020707719	3
0	523	214.568925842061	0
0	529	216.686559261406	0
0	533	217.813507209883	2
0	538	218.381988185225	2
0	549	224.286320865387	1
0	557	227.221414090368	1
0	561	228.148680502316	0
0	568	229.950184566202	1
0	584	235.615799751599	2
0	600	241.115538312588	3
0	615	246.004225151731	2
0	619	246.451824889751	3
0	625	249.032357822522	1
0	636	251.563615344232	1
0	645	254.072949267459	0
0	657	257.203351239441	1
0	676	262.55543991481	4
0	677	262.583266942065	0
0	696	268.114911139245	2
0	702	270.648874255247	0
0	712	273.923217657721	1
0	713	275.170531396174	3
0	715	275.431166840019	1
0	728	279.095446299995	4
0	738	283.339712797317	3
0	746	284.582874366316	2
0	750	285.935075527523	0
0	761	290.573044171558	1
0	767	292.45027847402	2
0	777	295.596464307049	1
0	779	296.136831205455	1
0	799	300.758808135289	2
0	813	305.594171680744	1
0	819	306.59508955246	2
0	826	308.411521137228	1
0	837	310.933348232648	0
0	843	312.268984963188	3
0	847	313.492464545068	0
0	858	317.658234898236	4
0	870	323.200864900371	5
0	872	324.23887314985	4
0	876	324.886093991577	0
0	882	328.450166631026	1
0	894	333.523649798941	2
0	908	339.04107993562	3
0	919	344.664400843673	4
0	932	350.37164135068	1
0	937	352.809077133189	3
0	947	355.978998702721	4
0	952	357.90865803289	0
0	957	360.841537731702	3
0	961	361.428612906955	4
0	975	366.963557603307	1
0	982	369.72605893412	0
0	984	369.772203151837	3
0	991	372.172012289291	1
0	1006	377.598670009061	5
0	1017	382.488419457336	4
0	1023	383.047964355446	5
0	1026	384.208517713822	2
0	1039	388.525196930863	1
0	1057	393.765414575817	2
0	1068	396.675969591361	4
0	1079	399.474730357066	2
0	1087	402.166074177023	1
0	1093	404.370443303368	3
0	1100	405.076624289857	2
0	1116	410.869861525953	4
0	1134	415.897527172466	1
0	1139	416.245928869587	3
0	1144	417.623086647599	2
0	1152	419.92472963804	1
0	1166	421.987951177177	2
0	1170	423.722742060204	1
0	1185	427.535724234306	5
0	1187	428.105999597935	1
0	1206	432.871518742996	6
0	1215	435.197568487721	5
0	1223	438.284739798871	0
0	1228	438.775244090012	1
0	1247	444.221392040611	2
0	1248	444.347292139317	0
0	1265	449.525440164148	1
0	1277	453.401101788512	0
0	1287	454.929560535825	3
0	1299	460.632929627673	2
0	1303	460.719910917576	3
0	1305	461.522647880944	4
0	1320	465.929403675958	2
0	1335	471.867480539489	5
0	1340	473.650017150099	1
0	1350	477.114994965266	1
0	1360	479.954627717733	0
0	1370	482.976258940069	2
0	1371	483.247145509935	2
0	1389	488.394421610754	3
0	1394	490.736447634531	1
0	1396	490.961221970041	2
0	1402	492.760214479284	4
0	1407	493.627234321326	3
0	1417	497.569982123671	3
0	1423	498.824044432264	1
0	1441	504.302280600654	4
0	1461	509.807342577964	2
0	1472	512.987660387302	2
0	1478	514.234899526699	1
0	1484	515.14098556317	3
0	1494	517.949209969498	0
0	1504	520.860706940764	5
0	1510	523.951086221617	2
0	1518	526.130543889587	4
0	1524	526.704967828705	2
0	1542	532.002213522098	3
0	1557	537.484580516587	5
0	1562	539.303288438013	1
0	1577	543.473101520683	2
0	1582	545.67027488852	2
0	1595	549.125666682846	3
0	1596	549.183188498957	2
0	1600	550.35207519528	4
0	1614	554.398500878136	3
0	1630	559.720940948935	5
0	1638	563.204724946648	1
0	1647	565.099447384249	1
0	1648	565.122423286191	4
0	1652	566.500137840635	2
0	1661	568.47906703002	0
0	1672	570.92224558164	2
0	1685	575.989837233681	3
0	1701	581.67558715819	3
0	1704	582.848452166775	2
0	1716	586.73646064825	4
0	1723	589.89179064264	3
0	1733	592.221227734588	1
0	1741	594.131633354923	3
0	1755	597.88553369884	4
0	1773	603.042893953276	2
0	1778	603.865659122826	3
0	1783	605.311380700199	3
0	1794	608.777456860878	1
0	1802	609.595876226905	2
0	1807	611.015391767843	1
0	1812	612.336030421202	0
0	1822	615.540640688506	4
0	1838	620.927380152284	4
0	1847	623.010253335933	3
0	1854	625.82963729777	3
0	1860	626.394906469392	4
0	1863	628.278247654197	3
0	1874	631.459249793323	4
0	1889	637.037556401691	4
0	1895	638.919722790368	0
0	1906	642.45397634665	5
0	1919	648.424723569075	1
0	1921	648.998027751807	4
0	1924	650.542540679561	3
0	1938	654.271232386357	5
0	1952	659.301200693012	4
0	1955	660.309244195468	0
0	1964	664.938042077007	1
0	1979	670.535139807504	6
0	1987	672.96510761022	5
0	1998	676.516250479039	2
0	2007	680.477010464531	1
0	2011	681.555699653927	1
0	2013	681.819937393758	3
0	2015	682.099430744075	4
0	2020	682.995253176663	0
0	2028	685.613688846472	0
0	2034	687.25620717835	1
0	2051	692.373325632888	1
0	2060	695.030497852599	0
0	2066	696.366259130539	3
0	2073	698.120198867054	4
0	2088	703.517095441933	2
0	2091	705.16656131436	2
0	2093	705.190993419969	1
0	2106	709.317195764979	1
0	2114	711.515817171083	3
0	2127	714.535184178505	2
0	2135	716.655025378456	1
0	2153	720.346888156611	4
0	2160	722.531301212486	1
0	2170	725.422646141964	0
0	2173	725.541132918679	3
0	2178	726.161651176637	2
0	2182	728.043006357609	1
0	2195	731.384273657579	4
0	2209	736.848738875477	2
0	2220	740.575681221428	1
0	2224	741.819777497329	0
0	2228	742.129970670216	1
0	2246	747.593586571286	1
0	2259	751.226423673452	3
0	2270	753.174758196114	4
0	2289	758.999200328476	0
0	2293	759.041963967964	2
0	2307	764.345280744372	1
0	2319	767.92172127334	1
0	2332	770.206696031852	5
0	2345	774.204049500992	0
0	2352	775.736950492956	1
0	2372	781.395101397302	2
0	2373	781.667100614056	4
0	2392	786.702107592722	2
0	2402	789.366136345668	1
0	2407	790.819740175274	0
0	2411	791.327121598766	1
0	2418	792.3588006401	2
0	2420	793.208520952848	3
0	2435	797.683022686051	4
0	2445	801.530784873184	1
0	2448	802.581815577347	0
0	2452	802.807516583245	1
0	2460	806.174913736418	0
0	2467	808.364859246419	1
0	2481	813.815122638016	3
0	2485	813.825996306961	2
0	2498	818.830862071834	2
0	2512	823.525035364092	1
0	2517	824.171579414516	3
0	2518	824.303233379385	2
0	2533	829.326944466683	1
0	2554	834.694262386535	4
0	2573	839.879686113449	2
0	2578	841.105590001449	3
0	2584	842.760220978411	2
0	2592	845.695557156	1
0	2597	845.784731298454	2
0	2603	847.773658721827	1
0	2616	850.887952063933	2
0	2617	851.012556675709	1
0	2632	854.982713413545	1
0	2639	856.277259871598	2
0	2660	861.545677867487	2
0	2664	862.59063934477	1
0	2684	867.238432853717	3
0	2685	867.421889794177	1
0	2697	870.864937705923	2
0	2701	871.217613289601	0
0	2710	872.965658827453	2
0	2726	878.885807291373	3
0	2741	884.037289300702	3
0	2746	886.116090275933	2
0	2751	887.664113484556	0
0	2757	889.780396719465	4
0	2769	895.342585332694	5
0	2778	898.799748958325	4
0	2786	901.324372825681	5
0	2787	901.769724920396	4
0	2797	906.521580143369	3
0	2808	911.828845893036	4
0	2814	915.946400973252	3
0	2820	916.866979167567	4
0	2831	922.854941600471	1
0	2835	924.332192152859	3
0	2848	928.202417796946	2
0	2855	931.260569344047	3
0	2864	933.226289110494	3
0	2880	938.345512019706	4
0	2889	941.707375414092	2
0	2898	943.930238119329	4
0	2907	946.899722167527	3
0	2915	949.488617462574	3
0	2923	952.169226186122	3
0	2932	954.76209816267	1
0	2951	960.111579905266	4
0	2971	965.360563950382	4
0	2978	968.074603734659	3
0	2991	970.435848723167	5
0	2997	971.962943735652	0
0	3002	973.543086452645	4
0	3013	976.323038398755	4
0	3015	977.492458673667	3
0	3030	982.281326778234	4
0	3049	988.192479131279	1
0	3051	988.855042192623	3
0	3070	993.762385364856	4
0	3085	998.581323128895	3
0	3091	999.113363408951	4
0	3108	1004.488847966773	5
0	3125	1008.838038267458	4
0	3132	1009.650226969273	2
0	3152	1014.91200103378	5
0	3159	1017.111994368959	3
0	3166	1018.869904740947	1
0	3170	1019.39098605246	2
0	3176	1020.649045199389	6
0	3190	1024.808084463237	1
0	3198	1026.346264292719	2
0	3209	1028.820290519158	0
0	3222	1031.85716209421	3
0	3235	1037.281777869687	5
0	3239	1037.319475960453	4
0	3252	1042.283282122107	3
0	3256	1042.665506265826	6
0	3266	1046.277996335181	2
0	3273	1048.532701479272	7
0	3292	1054.390119078803	1
0	3312	1059.762971570016	2
0	3314	1059.830875041439	6
0	3318	1060.039204519476	3
0	3326	1062.174040366662	2
0	3340	1065.600967459382	7
0	3344	1066.962203664708	1
0	3361	1070.948141760427	2
0	3384	1076.885127904128	2
0	3385	1077.048171380649	1
0	3395	1079.914741798887	1
0	3404	1081.590000467378	1
0	3411	1082.78051889362	2
0	3419	1084.620541611339	0
0	3421	1085.21901978704	0
0	3428	1088.090954610389	6
0	3430	1088.241218086912	1
0	3434	1088.321804859677	7
0	3447	1094.065093111481	1
0	3456	1097.312244084664	0
0	3464	1099.741824107944	1
0	3475	1103.487489844673	0
0	3481	1104.957369050478	8
0	3492	1110.378234872596	2
0	3503	1115.471407568317	1
0	3508	1117.202651091746	7
0	3511	1118.26413119526	1
0	3522	1120.486903551269	2
0	3538	1126.2532293282	1
0	3551	1130.218132014036	0
0	3553	1130.44997915743	6
0	3559	1132.154643418502	2
0	3564	1134.14319589292	1
0	3572	1136.95846302855	5
0	3577	1137.731404813474	6
0	3588	1141.60816630209	1
0	3594	1143.2658268502	2
0	3596	1143.639197266663	1
0	3601	1145.016966911276	5
0	3615	1148.571824914778	2
0	3631	1154.429021714956	6
0	3640	1157.950154715684	1
0	3648	1160.298770747848	2
0	3653	1161.472487638005	1
0	3658	1162.955461801157	5
0	3670	1166.005926422777	1
0	3691	1171.899038553706	2
0	3712	1177.760207679824	2
0	3717	1179.074512136529	4
0	3731	1183.286571094531	1
0	3736	1183.635582842401	5
0	3739	1184.199193848184	1
0	3759	1189.071406633363	2
0	3761	1189.832128301032	0
0	3772	1192.965817904692	4
0	3780	1195.039803745461	3
0	3801	1200.976574338277	1
0	3819	1206.917970526268	2
0	3826	1209.290885511911	3
0	3838	1212.112698316111	2
0	3846	1214.469384154073	2
0	3849	1214.72911607055	1
0	3851	1215.718168325028	1
0	3861	1217.635276007469	2
0	3868	1218.872769482667	1
0	3874	1221.21835537942	0
0	3882	1222.848288700453	3
0	3898	1228.403403320701	2
0	3902	1228.476906216008	3
0	3920	1234.379283493854	4
0	3935	1239.867667837072	5
0	3941	1242.175739053294	2
0	3951	1244.956452941991	1
0	3956	1246.394098544733	1
0	3963	1248.277658873241	0
0	3969	1250.303185931755	0
0	3971	1250.455579232893	4
0	3975	1250.666753898145	1
0	3980	1252.809768467796	0
0	3991	1255.982133345682	1
0	4004	1261.622322537594	0
0	4008	1261.951364636658	1
0	4017	1265.173304059428	3
0	4026	1267.841115796244	2
0	4043	1273.45524387388	3
0	4060	1279.270746440165	4
0	4072	1283.787950206554	0
0	4079	1284.540739254099	1
0	4087	1288.113672795943	3
0	4089	1288.737529655806	0
0	4096	1289.799773169453	1
0	4106	1294.688046515222	2
0	4113	1295.569875562801	3
0	4117	1297.760116355262	2
0	4128	1301.079373841877	2
0	4129	1301.086233900166	1
0	4147	1306.55400089012	2
0	4153	1308.738522310858	1
0	4163	1311.97929550638	2
0	4166	1312.817243139266	2
0	4179	1317.087584084603	3
0	4194	1322.744050327926	1
0	4195	1323.098232065335	2
0	4200	1323.915702376399	1
0	4214	1327.780175653173	1
0	4220	1328.194168723659	3
0	4239	1333.247459989046	2
0	4245	1335.058594647687	2
0	4248	1335.428762278175	0
0	4259	1338.874789712723	3
0	4270	1343.471483594274	2
0	4275	1344.590360047301	2
0	4281	1346.901127653902	1
0	4286	1348.454196553328	1
0	4292	1350.161508795345	2
0	4295	1350.683025726003	1
0	4311	1355.940464235149	1
0	4326	1360.915177276831	1
0	4330	1360.95270614117	2
0	4351	1366.213046410592	2
0	4352	1366.508251286114	0
0	4371	1371.762796501634	3
0	4387	1377.27402490634	1
0	4388	1377.690798969708	2
0	4396	1379.927676672241	1
0	4409	1383.03559909482	2
0	4428	1389.024307654709	3
0	4431	1389.504591738345	0
0	4445	1394.81467652135	2
0	4455	1399.200640692378	2
0	4462	1400.192275957907	3
0	4467	1402.243657540765	1
0	4478	1405.929812686755	1
0	4483	1407.613156485726	1
0	4497	1411.247636587131	2
0	4499	1411.98145426333	1
0	4506	1413.253809391066	2
0	4518	1416.649590852675	2
0	4536	1421.9286616738	3
0	4557	1427.362398021161	3
0	4561	1428.134225407038	0
0	4567	1429.884176471049	2
0	4577	1433.096448783302	3
0	4580	1433.9160362538	2
0	4583	1434.315755367632	0
0	4591	1437.701452557352	1
0	4595	1438.13918463374	2
0	4607	1444.043981670639	1
0	4621	1449.073170457979	2
0	4624	1449.420830695197	0
0	4628	1449.74686668348	3
0	4639	1455.258414516928	1
0	4653	1460.387828682786	4
0	4660	1462.757516807184	1
0	4672	1465.948242279239	5
0	4683	1470.145425683017	4
0	4688	1471.183887527794	2
0	4705	1476.454992944146	1
0	4725	1482.003846219512	5
0	4727	1482.467856755018	0
0	4737	1486.499984965665	1
0	4743	1487.240441899052	1
0	4760	1492.201756767359	4
0	4764	1492.848640828397	2
0	4784	1498.267304727346	5
0	4787	1498.779218382555	0
0	4802	1503.778288447069	2
0	4805	1504.616538973296	1
0	4809	1505.777735678367	1
0	4815	1507.963109405026	4
0	4822	1509.466528724883	2
0	4837	1514.705513817495	2
0	4855	1520.603274544938	3
0	4872	1526.301640993687	4
0	4883	1530.098676720639	1
0	4886	1531.193402639128	3
0	4890	1531.308565361197	4
0	4901	1535.627276900937	3
0	4907	1536.55947258254	4
0	4922	1541.795155713339	1
0	4941	1546.968420196445	0
0	4945	1547.488502790457	5
0	4960	1553.159602657663	5
0	4969	1556.181646916788	4
0	4978	1558.863298358167	2
0	4989	1562.814906993895	4
0	4995	1564.421040520309	1
0	5017	1570.242771775699	5
0	5023	1572.197980683067	1
0	5040	1576.1830134776	5
0	5048	1578.404296004926	4
0	5054	1580.044829106895	4
0	5062	1581.368345961212	5
0	5083	1586.851809465098	2
0	5102	1592.449932290944	6
0	5104	1592.568225085622	1
0	5123	1598.023510754113	7
0	5135	1601.913271840316	0
0	5140	1602.781960134293	3
0	5146	1603.816581151918	4
0	5155	1607.016981713023	3
0	5160	1608.756657558613	0
0	5165	1609.372925896202	1
0	5168	1610.775114211725	6
0	5179	1614.480439634532	4
0	5186	1617.261349622282	5
0	5195	1619.809777894993	5
0	5201	1622.463786506923	4
0	5210	1624.843077207454	6
0	5220	1628.932614412396	5
0	5226	1630.091463192137	2
0	5227	1630.137141181277	4
0	5234	1632.47155919171	1
0	5246	1635.905328391822	1
0	5248	1636.400717096997	3
0	5265	1641.046386507111	5
0	5279	1645.229800355976	0
0	5287	1647.015989651908	2
0	5291	1647.743986054447	4
0	5305	1652.934526721486	4
0	5308	1654.166760176078	3
0	5315	1657.186022355232	3
0	5322	1658.704019786096	4
0	5338	1664.150114678084	1
0	5358	1669.990597288129	5
0	5362	1670.975142350192	4
0	5368	1672.158183319856	2
0	5371	1673.196155382905	1
0	5373	1673.885257646911	3
0	5384	1675.592892516642	4
0	5385	1675.996930091412	0
0	5397	1680.928911288739	0
0	5399	1681.117448843088	3
0	5403	1681.415457410277	1
0	5411	1684.827691546995	0
0	5417	1687.393382723681	4
0	5421	1689.366599321611	1
0	5430	1692.741828987147	5
0	5434	1694.44085020456	4
0	5442	1697.932611102476	1
0	5457	1703.218692291533	5
0	5477	1709.027485587173	2
0	5488	1713.368906580623	1
0	5493	1714.263915119232	2
0	5501	1717.397649018448	1
0	5511	1719.434680029056	2
0	5515	1721.396027586195	4
0	5520	1722.515442501176	0
0	5527	1724.686289995215	5
0	5537	1729.717381126485	6
0	5546	1734.78407411371	5
0	5550	1734.993929604306	1
0	5563	1739.994227493885	6
0	5566	1741.017210831065	1
0	5577	1744.910249967833	5
0	5581	1745.046478025154	6
0	5585	1746.362717660973	0
0	5587	1747.219887936725	0
0	5593	1750.200711975344	1
0	5597	1752.247484690747	0
0	5603	1755.559220056519	1
0	5614	1760.58972849511	1
0	5631	1766.294832561635	2
0	5644	1771.37475475518	1
0	5649	1772.255314492625	7
0	5652	1773.296116195277	0
0	5654	1773.716202551974	6
0	5664	1777.706989684612	1
0	5665	1778.208439723128	0
0	5676	1783.008226287555	2
0	5683	1786.982540717119	1
0	5690	1788.970238596438	7
0	5703	1794.951735384068	2
0	5714	1800.536105602285	1
0	5723	1804.434691219598	6
0	5731	1806.167265562112	1
0	5737	1808.303247083797	0
0	5745	1810.522714334776	1
0	5751	1811.379055910049	2
0	5767	1816.723281257557	3
0	5768	1816.780417068287	5
0	5784	1821.925735426139	2
0	5799	1827.242829024795	3
0	5808	1830.677747089769	2
0	5816	1832.853004596432	6
0	5818	1833.208076626648	2
0	5823	1835.579020850481	1
0	5833	1838.59457424586	2
0	5843	1842.965466281641	5
0	5852	1844.480526693634	1
0	5856	1845.870750379642	4
0	5871	1849.640968314142	3
0	5877	1850.828770046242	1
0	5882	1852.180199588652	0
0	5894	1855.289722273828	4
0	5901	1857.724877806149	3
0	5912	1861.16345924279	1
0	5917	1862.555780232887	0
0	5931	1867.159856666115	1
0	5944	1870.687460463381	0
0	5951	1872.560208824233	5
0	5959	1875.527004361043	4
0	5969	1878.122376821472	2
0	5976	1880.733513634539	1
0	5986	1883.720639470501	5
0	6001	1888.905480722665	2
0	6005	1889.093124400128	3
0	6012	1892.447112008933	0
0	6019	1894.696789087264	6
0	6032	1900.055843879005	7
0	6044	1905.639688994737	4
0	6045	1905.788321161411	3
0	6047	1905.830631999187	6
0	6057	1911.151718105657	4
0	6070	1916.682560416173	7
0	6076	1919.20586262073	3
0	6085	1922.231688739035	1
0	6099	1927.740705538775	1
0	6104	1929.01420361316	0
0	6117	1933.501837571856	6
0	6121	1933.560136854417	1
0	6132	1937.357847798384	2
0	6140	1938.604678469711	2
0	6142	1939.559948462644	0
0	6155	1943.771148802481	3
0	6164	1946.575172619081	2
0	6170	1948.933252229362	5
0	6176	1949.400377579035	1
0	6179	1950.463496287127	4
0	6197	1955.04900814919	2
0	6211	1958.868182485345	1
0	6222	1961.00247435854	3
0	6224	1961.515238172026	1
0	6228	1962.114958545426	0
0	6241	1966.617839182729	4
0	6242	1966.691728793205	0
0	6249	1969.365342495267	3
0	6256	1972.042306011079	1
0	6257	1972.348082480728	3
0	6275	1977.98260165239	1
0	6276	1977.998860623107	0
0	6292	1983.847089066871	4
0	6294	1984.162695725334	0
0	6296	1984.474860817902	2
0	6303	1987.476114549211	3
0	6308	1989.172145514519	1
0	6320	1993.504008354279	1
0	6327	1994.892416625752	2
0	6346	2000.390755946285	1
0	6351	2001.836839145285	1
0	6359	2004.29594613775	2
0	6362	2004.757338438768	0
0	6370	2005.722056217261	2
0	6371	2005.796467521006	0
0	6383	2010.760060650532	3
0	6387	2013.731306578385	1
0	6394	2016.436912798325	1
0	6410	2022.037301073086	1
0	6428	2027.270048554175	0
0	6432	2027.503867124675	1
0	6433	2028.467965798225	0
0	6444	2031.622106718833	2
0	6452	2033.336287889166	2
0	6457	2034.707046192374	1
0	6462	2036.988308714006	0
0	6470	2038.621235541536	1
0	6472	2040.167667144447	0
0	6484	2044.139416938184	1
0	6499	2049.625417764068	2
0	6505	2051.605094489875	1
0	6511	2053.72370163654	0
0	6518	2054.702920895538	1
0	6524	2056.957749577359	0
0	6527	2057.843856259718	1
0	6534	2060.309682007882	1
0	6548	2066.051741211911	2
0	6566	2071.439109819711	1
0	6586	2076.80075843679	2
0	6588	2077.117981230377	1
0	6606	2081.91411616537	2
0	6610	2082.922048899116	0
0	6612	2082.95303836139	0
0	6624	2087.887446050301	1
0	6626	2088.69455278607	1
0	6633	2091.498600473629	0
0	6640	2093.325706896374	1
0	6657	2098.989998931067	1
0	6675	2104.008433828831	1
0	6679	2104.077299488477	2
0	6691	2107.366792406656	0
0	6702	2109.510330642575	2
0	6703	2110.218824354585	0
0	6708	2112.221472613168	1
0	6716	2115.300662526164	1
0	6733	2121.23495976627	1
0	6738	2122.414525369765	1
0	6757	2126.752224750818	2
0	6769	2130.762689406872	0
0	6773	2131.928286788986	0
0	6777	2132.042685313617	2
0	6781	2134.623584754184	1
0	6789	2137.986402415439	1
0	6804	2143.971590816045	1
0	6809	2145.357516077231	0
0	6812	2145.99563731719	1
0	6823	2149.268504753478	2
0	6837	2154.441646812486	2
0	6840	2155.555678174249	0
0	6852	2159.805928957418	3
0	6855	2161.281144798386	1
0	6866	2165.079491291197	4
0	6876	2170.490432071501	2
0	6879	2172.096787102751	3
0	6888	2175.914706364974	1
0	6894	2178.590632951001	2
0	6905	2181.874100933551	1
0	6906	2182.011019039198	1
0	6921	2186.234912413635	0
0	6925	2186.967193598395	0
0	6929	2187.208777027439	1
0	6937	2191.248150949133	1
0	6944	2193.047036941398	2
0	6946	2193.152037671185	0
0	6957	2198.058134950932	3
0	6969	2203.977869913682	1
0	6978	2207.989355841653	2
0	6982	2209.056259097416	1
0	6987	2209.802285311047	2
0	6989	2210.316280514119	0
0	6999	2215.173493255397	1
0	7009	2219.147877398531	0
0	7015	2220.305046415657	3
0	7028	2225.581919645194	4
0	7032	2227.462687623687	3
0	7036	2229.381225685941	0
0	7041	2231.227202243639	4
0	7044	2235.932112305193	3
0	7048	2236.364865468817	1
0	7055	2241.110832403183	0
0	7060	2241.424429467881	4
0	7066	2246.507329253714	1
0	7070	2248.376713630162	3
0	7080	2252.494314471261	1
0	7082	2253.555859134417	2
0	7090	2256.322057474987	1
0	7099	2258.34071162739	2
0	7114	2263.964804660531	2
0	7131	2269.539718453076	3
0	7134	2270.975454972592	0
0	7136	2271.33937052614	1
0	7145	2274.914946737469	1
0	7146	2275.409078572993	0
0	7157	2280.601243156477	2
0	7159	2282.066088838155	2
0	7169	2286.600820438939	1
0	7183	2291.731727446199	3
0	7199	2297.585728852546	3
0	7208	2300.934824469385	2
0	7216	2303.159248908751	2
0	7221	2304.584320678261	1
0	7223	2305.015011859477	1
0	7236	2309.12077671895	2
0	7239	2309.758910522915	1
0	7246	2312.004641658395	0
0	7254	2315.042034911925	1
0	7257	2316.877187646343	2
0	7261	2318.205196585157	1
0	7270	2321.007994979389	2
0	7273	2322.501267724904	0
0	7278	2323.882373724484	1
0	7286	2326.626082375647	1
0	7288	2327.893360419202	0
0	7299	2332.564128122527	1
0	7306	2336.209619520117	0
0	7313	2338.33378801821	2
0	7316	2339.188568619664	0
0	7322	2343.792699534216	1
0	7326	2343.970778801015	1
0	7335	2349.290302311771	2
0	7342	2353.745748154239	1
0	7348	2354.662100266202	2
0	7359	2360.213509155905	2
0	7372	2365.894475768089	1
0	7388	2371.802353530891	1
0	7393	2374.044239956771	1
0	7397	2374.997668511003	0
0	7408	2377.740322794534	3
0	7409	2378.237369004523	2
0	7412	2378.776364534513	0
0	7416	2380.840405997823	1
0	7423	2383.307035928827	1
0	7438	2388.448147590274	2
0	7449	2392.430869357896	0
0	7456	2394.07215083088	3
0	7467	2399.630145204023	4
0	7468	2400.674663545332	0
0	7477	2405.526615777521	5
0	7479	2407.783024389299	4
0	7481	2409.531297257172	3
0	7486	2411.304056126627	4
0	7490	2415.165299281363	3
0	7495	2416.594962719831	1
0	7503	2421.923854340569	1
0	7504	2421.998533251465	0
0	7517	2427.406661242715	2
0	7529	2433.025716610488	1
0	7544	2438.692759254717	4
0	7556	2443.069105664386	3
0	7562	2443.965914293195	2
0	7568	2446.679496837781	1
0	7574	2448.639849277796	0
0	7580	2449.557900054616	3
0	7590	2454.734165896432	4
0	7595	2457.804457101506	3
0	7602	2460.224505522059	1
0	7603	2460.661434256473	2
0	7606	2461.420329146089	2
0	7618	2465.377558661977	0
0	7622	2465.984614628371	1
0	7641	2471.490489016524	1
0	7650	2474.029308786967	1
0	7655	2475.270562735739	0
0	7664	2477.428357289177	3
0	7681	2483.344135012482	2
0	7698	2489.324206945491	2
0	7701	2490.104277327074	2
0	7715	2495.095422473741	1
0	7720	2496.616440470918	1
0	7725	2497.351778479295	1
0	7740	2500.901808587373	2
0	7760	2506.190206180331	3
0	7775	2511.519855553636	0
0	7780	2511.887676248564	4
0	7793	2516.915401768295	0
0	7798	2517.719364639143	5
0	7801	2519.806660831795	1
0	7804	2521.173475999967	4
0	7812	2522.889627299509	1
0	7822	2526.835117848827	0
0	7828	2527.960700302157	2
0	7841	2533.739460403105	5
0	7848	2537.740033532959	4
0	7855	2539.010942487051	3
0	7869	2544.851487418409	4
0	7872	2546.750430227498	3
0	7881	2550.803648754959	1
0	7890	2554.42303996988	2
0	7893	2555.221852603839	0
0	7899	2556.470404071971	1
0	7912	2561.470371796176	1
0	7917	2562.194105995125	2
0	7929	2566.668023052399	0
0	7933	2567.332324827793	5
0	7935	2568.258346224903	4
0	7943	2572.730512883752	1
0	7951	2575.921209917521	3
0	7960	2578.588183516641	1
0	7964	2579.97752153385	0
0	7978	2584.167631426598	3
0	7981	2585.311196245379	2
0	7996	2590.166065453091	4
0	8012	2595.566479742532	5
0	8015	2596.875856120959	0
0	8025	2600.6918653308	1
0	8027	2601.278244202027	4
0	8040	2606.125967764766	2
0	8049	2609.298051452156	1
0	8054	2611.142266201793	1
0	8058	2611.331344095063	5
0	8074	2617.109848906288	4
0	8078	2617.283892218726	2
0	8090	2622.977140976819	1
0	8091	2623.091633348498	1
0	8112	2628.093999613547	2
0	8125	2631.925828287036	0
0	8134	2633.929622425935	3
0	8152	2639.866360161225	4
0	8165	2644.416446689402	3
0	8170	2645.573747633961	5
0	8179	2648.739733355592	4
0	8181	2649.0661224759	0
0	8189	2651.314809230627	4
0	8202	2657.104166317271	5
0	8211	2662.548456056627	3
0	8216	2662.674177705781	1
0	8220	2664.403291452448	0
0	8230	2667.690270983852	6
0	8233	2669.133854363935	5
0	8245	2673.060526790102	4
0	8256	2678.878379291627	1
0	8273	2684.424624275887	2
0	8286	2689.006623935775	4
0	8288	2689.245976969834	3
0	8292	2689.686820624634	5
0	8307	2695.326360770739	1
0	8326	2700.56789115421	2
0	8333	2702.65462170728	1
0	8348	2706.098746833396	6
0	8351	2707.077522690412	1
0	8361	2709.651756494889	2
0	8373	2711.879855567594	2
0	8390	2716.747452660586	0
0	8392	2717.365466061635	5
0	8397	2717.799615802946	6
0	8405	2721.911303994363	1
0	8412	2723.531830056109	7
0	8426	2728.735850561181	1
0	8431	2729.293537618131	2
0	8445	2735.104983637347	1
0	8452	2737.272304822459	1
0	8465	2740.592565678996	8
0	8486	2745.944581044842	2
0	8489	2747.043414338613	7
0	8496	2748.542779625513	1
0	8510	2751.465478428644	2
0	8516	2753.227742857069	1
0	8533	2757.334220896014	2
0	8541	2759.729212606565	0
0	8553	2762.924600153002	1
0	8555	2763.849786339682	0
0	8559	2764.741626999925	1
0	8571	2768.221059169159	2
0	8582	2772.556796813504	6
0	8588	2773.438921667407	3
0	8595	2776.126361688022	2
0	8605	2779.426825553649	2
0	8610	2781.495458458784	1
0	8622	2784.598845588979	3
0	8632	2788.61522934924	2
0	8640	2790.501842667353	1
0	8664	2796.44335799525	2
0	8678	2800.653324278891	0
0	8681	2801.099554750025	5
0	8685	2801.983928984035	3
0	8701	2807.374977258271	4
0	8702	2807.693663342164	1
0	8706	2808.700144565433	3
0	8713	2811.046615322126	0
0	8720	2812.818960363049	1
0	8721	2813.212586270418	4
0	8728	2815.788729491993	2
0	8735	2817.873736750571	2
0	8743	2820.455914019961	1
0	8745	2820.851645904599	3
0	8749	2822.211257460295	1
0	8756	2823.215503295887	2
0	8774	2828.896109394965	4
0	8789	2834.697423549838	2
0	8806	2839.752881043827	1
0	8808	2840.496738950612	3
0	8810	2840.51407218317	1
0	8828	2844.760607654698	3
0	8840	2848.537889377219	2
0	8845	2850.055494481814	0
0	8850	2850.401483832862	3
0	8851	2850.75434178615	2
0	8863	2855.580592934744	2
0	8872	2858.820232015106	1
0	8879	2860.927954952124	2
0	8883	2861.341694854436	3
0	8895	2866.705210007734	2
0	8900	2866.928354094274	1
0	8913	2871.878285541437	0
0	8918	2872.584836552621	3
0	8919	2872.669638884374	2
0	8937	2878.389583478918	1
0	8951	2883.469715220624	3
0	8971	2888.669236330551	4
0	8985	2893.156429039671	3
0	8991	2894.202177280796	3
0	9003	2897.081478484909	0
0	9011	2898.903960607948	0
0	9016	2899.783730878731	1
0	9020	2901.298316342413	2
0	9025	2904.177755973888	2
0	9033	2905.49810903543	3
0	9036	2906.790611183743	2
0	9049	2910.916627425471	3
0	9063	2915.964914470216	3
0	9072	2919.378640267419	0
0	9078	2921.30982425786	4
0	9090	2927.051418059044	1
0	9095	2929.536322651318	2
0	9105	2932.251727001047	3
0	9122	2937.680392675339	4
0	9129	2940.528570325933	0
0	9131	2941.254586406291	3
0	9140	2943.319721280602	1
0	9144	2944.331810231091	3
0	9153	2947.419953909476	2
0	9158	2948.590481799334	2
0	9174	2953.814529049914	3
0	9189	2958.850711025303	4
0	9198	2961.780329525826	2
0	9203	2963.272580723633	1
0	9210	2964.681263862882	1
0	9223	2968.342903506132	3
0	9232	2970.247129196074	3
0	9242	2973.002785615394	2
0	9255	2975.585235806421	3
0	9265	2978.152859685715	0
0	9269	2979.35886443081	0
0	9276	2980.811587361858	4
0	9283	2984.924386139498	3
0	9288	2985.995912104153	4
0	9296	2991.374092022891	2
0	9300	2991.96179351025	1
0	9317	2997.310488049879	2
0	9330	3002.36572952802	1
0	9347	3007.53951576865	5
0	9370	3012.841591914889	6
0	9375	3014.779821863634	5
0	9390	3018.584055522929	3
0	9399	3020.89322000649	2
0	9408	3023.823870414407	1
0	9413	3024.0939927504	3
0	9434	3030.000038763515	2
0	9453	3035.226992265328	3
0	9459	3036.986785900667	2
0	9474	3040.750627628183	1
0	9479	3041.139133160242	2
0	9489	3044.072278177836	0
0	9494	3045.316700574715	4
0	9496	3045.755525121465	2
0	9501	3046.259191554046	3
0	9509	3049.682660084805	1
0	9519	3051.738231646835	1
0	9521	3053.05267184624	0
0	9529	3055.205302970722	3
0	9537	3057.008145111387	1
0	9546	3060.648457748241	0
0	9549	3061.38561502355	2
0	9554	3062.161120040815	3
0	9562	3066.263663983087	2