version 3
run General-6-20240430-20:30:43-5479
attr configname General
attr datetime 20240430-20:30:43
attr datetimef 20240430-203043
attr experiment General
attr inifile omnetpp.ini
attr iterationvars $0=true
attr iterationvarsd true
attr iterationvarsf true-
attr measurement $0=true
attr network Supermarket
attr processid 5479
attr repetition 6
attr replication #6
attr resultdir results
attr runnumber 6
attr seedset 6
config network Supermarket
config repeat 10
config num-rngs 10
config **.use_random_strategy true

vector 0 Supermarket queueSizeOverTime:vector ETV
attr recordingmode vector
attr source updateQueue
attr title queueSizeOverTime
vector 1 Supermarket customerWaitingTime:vector ETV
attr interpolationmode none
attr recordingmode vector
attr source customerFinished
attr title "cust waiting time"
0	7	5.218645046931	1
0	16	10.993296351051	1
0	27	16.316479026806	1
0	38	20.555667197565	0
0	44	22.05755218654	2
0	52	27.40889577975	1
0	56	27.45580614172	1
0	59	29.132450048581	0
0	65	32.131823120056	0
0	70	33.386829440716	1
0	79	38.557195039933	1
0	89	43.024628398591	0
0	95	44.420140430333	1
0	112	50.294581991156	2
0	113	50.537038501934	1
0	117	51.476677407976	0
0	122	53.260256399401	0
0	128	56.287041219884	1
0	139	61.728591052351	2
0	140	62.323671296473	0
0	147	67.015211560066	1
0	156	72.058288461297	2
0	168	77.694350997453	3
0	170	78.98627694906	1
0	173	80.448609844551	0
0	179	82.774784087903	1
0	188	87.915366656847	4
0	199	93.20838490897	2
0	200	94.736030271977	1
0	209	99.158514181153	2
0	217	104.477438335306	3
0	222	105.117900072598	1
0	227	107.044435488643	1
0	239	110.482492261334	1
0	248	113.689585007726	2
0	263	116.470505662729	2
0	277	120.648665002666	1
0	285	122.24016346736	2
0	294	124.619147842867	1
0	302	126.354230522643	1
0	309	127.280092730654	2
0	330	133.169384752402	2
0	349	138.180970295567	2
0	354	139.79469788936	1
0	356	140.343604263736	1
0	358	140.563848266259	0
0	369	143.832907603124	2
0	381	147.836619928016	1
0	388	149.277513488896	1
0	410	155.04143201979	3
0	418	157.108655771591	0
0	426	159.729027863244	2
0	432	160.900995981182	2
0	446	165.656685798199	0
0	451	166.331863892964	3
0	454	168.422447941735	2
0	464	171.732849588153	3
0	478	177.057187919972	4
0	487	182.020660484679	3
0	491	182.380517429906	4
0	494	184.783458677471	1
0	503	188.020353794797	1
0	518	193.33466174407	2
0	519	193.386983954932	1
0	536	199.172752201558	5
0	542	202.100451149632	4
0	552	204.709865286249	5
0	568	210.117905873108	1
0	588	215.589838429355	2
0	596	217.418948877373	0
0	598	217.973948401051	0
0	607	221.316857378232	1
0	610	222.909483514494	1
0	619	226.579643787472	4
0	625	227.042928179028	5
0	639	232.43560745474	2
0	654	238.284388488392	1
0	655	238.445394109003	0
0	669	243.519194699242	0
0	673	243.67094967654	1
0	689	249.118737730896	2
0	692	249.876443611927	4
0	703	253.362416395688	1
0	709	254.361528640613	2
0	722	259.272014351097	1
0	727	260.01323671313	1
0	745	265.016654316802	5
0	748	266.16058898205	4
0	767	270.643989257049	2
0	785	275.917592199985	2
0	794	278.232922612341	3
0	797	278.400875689815	1
0	799	279.118033470702	1
0	808	281.720455812756	2
0	820	284.905798925902	0
0	830	287.046038987581	3
0	836	289.293470923328	2
0	838	289.837719493196	2
0	843	291.172193640732	1
0	846	292.038550696454	1
0	851	292.820968059125	2
0	866	298.532465755242	3
0	870	300.297441905365	1
0	883	304.132458172507	2
0	896	309.547130179127	3
0	901	311.023214992486	2
0	906	312.318597663312	0
0	914	315.360930606724	4
0	915	315.68274998176	1
0	925	320.20266612771	3
0	929	320.757687650156	2
0	941	326.584838629002	4
0	954	332.077558644349	5
0	964	337.262537936913	3
0	973	340.75333424693	4
0	975	341.857589672436	2
0	980	342.430891160155	1
0	997	347.596640449018	3
0	1010	353.055448363888	3
0	1014	353.141766697868	2
0	1023	357.826846382585	2
0	1030	359.11480198335	1
0	1047	364.326000903734	3
0	1057	367.705982565994	2
0	1065	369.549338044832	3
0	1083	374.954964357544	2
0	1088	375.155126776547	3
0	1096	377.551377171068	0
0	1100	378.450269275576	2
0	1108	380.3794793766	4
0	1110	381.289417536463	1
0	1112	381.308799085795	3
0	1126	386.185366208666	4
0	1138	391.311732818612	3
0	1145	392.018657439855	4
0	1157	397.296403276968	5
0	1160	397.519899494132	0
0	1164	399.658324006952	4
0	1173	403.068292749814	5
0	1177	405.914618236477	1
0	1183	408.678347335662	0
0	1188	408.977498808178	6
0	1194	414.610029926292	1
0	1203	420.372403330171	0
0	1207	420.58539821813	7
0	1210	423.52028774401	6
0	1215	426.397789436161	1
0	1228	431.696356793401	7
0	1239	437.256995489822	8
0	1251	443.110376313563	1
0	1252	443.54827297212	7
0	1269	448.674716916402	2
0	1277	452.086999738473	0
0	1283	453.744131201181	1
0	1296	459.400139105275	1
0	1298	459.51911255136	6
0	1302	459.591692270014	2
0	1317	465.030313071796	1
0	1330	470.038973642514	0
0	1333	470.415880724673	0
0	1337	470.765956426041	1
0	1353	476.104479006493	7
0	1367	481.328378384236	1
0	1370	482.104632498007	6
0	1383	485.682657146709	1
0	1391	486.953215877061	7
0	1408	491.896707892769	0
0	1412	492.088387781522	8
0	1413	492.35372799694	7
0	1424	497.079160908478	6
0	1426	497.152729117547	0
0	1430	497.541871534894	7
0	1433	500.020291150896	0
0	1440	503.26996375993	1
0	1445	506.494211284452	6
0	1451	508.494004716166	1
0	1470	514.372965922813	1
0	1472	515.36012461922	5
0	1489	519.386282061693	6
0	1492	519.733361283552	0
0	1506	525.088753218298	2
0	1510	526.146857221961	1
0	1513	527.970139903016	0
0	1519	530.518651907217	0
0	1524	530.937619362493	7
0	1531	536.196790282615	1
0	1542	542.022145961412	1
0	1544	542.210980036073	6
0	1555	546.467558298144	0
0	1559	547.123722490515	5
0	1564	547.707319934387	2
0	1574	552.836575811962	1
0	1592	558.540314854356	3
0	1594	559.075941142743	0
0	1596	559.666065074048	4
0	1606	563.895196442726	1
0	1608	564.667568787583	2
0	1622	569.372120408342	3
0	1637	574.518682117575	2
0	1652	580.330852367451	1
0	1653	580.621650458196	2
0	1673	585.990332373652	2
0	1679	587.474197806801	3
0	1682	588.360292913045	1
0	1695	591.24519769475	3
0	1706	594.321146978774	2
0	1717	596.563987331233	3
0	1734	601.705453296893	2
0	1739	602.034002686386	3
0	1742	603.080874168323	2
0	1759	607.922881214415	3
0	1764	609.836560154914	2
0	1781	613.487707345049	3
0	1784	614.619045431497	0
0	1796	618.567110813224	4
0	1801	619.89127829531	2
0	1815	624.115113191075	3
0	1826	629.150102491492	5
0	1831	630.20089555252	1
0	1835	631.812321803767	4
0	1840	633.245324104801	2
0	1848	635.122159645196	2
0	1850	635.134287480615	3
0	1856	637.058946640111	1
0	1858	637.842889469346	0
0	1867	640.225659735968	3
0	1878	645.457766975743	4
0	1879	645.51278557769	3
0	1882	646.584925635261	2
0	1893	650.654970112956	3
0	1898	654.506375682309	2
0	1905	656.217167816126	1
0	1923	662.111118364847	2
0	1926	662.861332458445	1
0	1935	666.416702704162	2
0	1940	667.333831095836	1
0	1956	672.745929932455	3
0	1974	677.861868956592	3
0	1975	677.948360379668	0
0	1991	683.823024715064	4
0	1992	683.832519861405	0
0	2004	689.046397068305	1
0	2007	689.866079121015	3
0	2010	690.407940311359	2
0	2021	694.234129579039	1
0	2028	695.80587153999	2
0	2045	700.142667253734	3
0	2056	703.207954003251	1
0	2064	705.672444979552	0
0	2069	706.111350829247	4
0	2084	711.568417448084	2
0	2085	712.498908102862	0
0	2094	716.756460548847	1
0	2098	717.180351812159	1
0	2102	719.039666877828	3
0	2114	722.438076917314	1
0	2123	725.120995922945	0
0	2132	727.509083609329	2
0	2150	733.270162893459	2
0	2163	738.898705235685	1
0	2167	739.269232212798	1
0	2181	743.813108214294	2
0	2183	744.018682922003	1
0	2188	744.3346671639	2
0	2212	750.068601687438	3
0	2231	755.904305251082	2
0	2240	758.563381945714	1
0	2242	758.622983437846	1
0	2252	761.171045296359	2
0	2256	762.144945211712	2
0	2259	762.928539944463	1
0	2274	767.145475435768	2
0	2292	772.185527038992	2
0	2294	772.899817033321	1
0	2300	774.34901723382	0
0	2311	777.401220179162	1
0	2328	782.315681384529	1
0	2334	782.557608094298	3
0	2338	784.184250901222	2
0	2354	787.874100107466	2
0	2356	788.699149418624	0
0	2360	788.815019581349	0
0	2370	792.984498430741	3
0	2381	798.891091280616	1
0	2398	804.409636859781	1
0	2401	805.33002747083	0
0	2406	807.133609118288	1
0	2413	809.475520812091	2
0	2417	809.758460783864	2
0	2427	814.590069046011	1
0	2434	815.756262101697	1
0	2444	818.663837905157	1
0	2457	821.145476094678	2
0	2474	826.5114829652	0
0	2478	826.577868614577	2
0	2483	829.452987407916	1
0	2488	831.097447289502	0
0	2495	832.209767428458	3
0	2502	837.802494230564	0
0	2507	838.09235746227	1
0	2519	843.440181352662	1
0	2527	847.240278788257	2
0	2530	847.804843825404	0
0	2532	847.835446203008	1
0	2537	848.953528048934	1
0	2543	851.272041161774	0
0	2553	854.884160079525	1
0	2557	856.798842424641	0
0	2568	860.48993020877	2
0	2579	865.730069232404	1
0	2598	871.466226724673	1
0	2599	871.662769742542	1
0	2622	877.196014639454	2
0	2623	877.21144446975	0
0	2640	882.372413086237	3
0	2658	888.339571170972	4
0	2673	894.03105233493	2
0	2678	895.559095600268	0
0	2682	897.702356031046	1
0	2684	897.885374111939	3
0	2689	899.302813704821	1
0	2709	905.179559511362	1
0	2728	910.338053032985	2
0	2736	912.952992936944	1
0	2750	916.130333772624	2
0	2759	918.763317772073	2
0	2763	919.779141960665	0
0	2772	921.463853274003	3
0	2776	923.105963894747	0
0	2787	926.76596601633	3
0	2795	931.866980286434	2
0	2799	931.910691851048	3
0	2811	937.719070750052	1
0	2813	938.631564905404	2
0	2821	942.041761442435	2
0	2823	942.144982975904	0
0	2829	943.396205746798	3
0	2841	949.355411467372	1
0	2857	954.586372006681	4
0	2867	959.140422845846	1
0	2871	959.673211152662	2
0	2878	962.068819179898	3
0	2880	962.072282827581	0
0	2889	964.799064038085	1
0	2892	965.695331270923	2
0	2906	970.423105050573	2
0	2919	975.629917594833	3
0	2935	980.771317207483	3
0	2938	982.13804711075	2
0	2950	985.954098784128	4
0	2956	988.612243853155	1
0	2959	989.818691022463	1
0	2969	991.446646517139	1
0	2991	997.134954196863	2
0	2994	998.15002784377	3
0	3014	1003.033971833993	3
0	3020	1004.428909683831	0
0	3035	1008.680145255519	4
0	3046	1012.981607911179	0
0	3052	1014.559252870964	1
0	3058	1017.460735184602	2
0	3066	1019.762714368869	3
0	3070	1020.192598986436	1
0	3081	1023.581943770167	2
0	3091	1026.066754277326	2
0	3109	1031.322087260658	2
0	3130	1036.472000832666	3
0	3151	1041.671200070294	3
0	3155	1043.010569919945	2
0	3157	1043.505686994057	1
0	3159	1043.883528532458	2
0	3173	1046.800172463755	3
0	3194	1052.359194962771	3
0	3200	1054.254007878827	0
0	3204	1055.716791559705	2
0	3214	1057.465980014528	3
0	3219	1059.845011247319	2
0	3221	1060.130223313459	2
0	3225	1060.914513453373	1
0	3235	1063.370294102465	2
0	3251	1068.374447861451	3
0	3256	1070.244698958004	1
0	3259	1070.513469797554	2
0	3265	1072.77597182651	1
0	3270	1074.066678706554	3
0	3286	1079.325278060508	2
0	3295	1083.756887739402	0
0	3300	1084.358519272876	3
0	3302	1085.328705108372	2
0	3314	1089.546482412607	1
0	3321	1092.723218436582	1
0	3330	1094.814537860217	4
0	3344	1100.077920220091	1
0	3354	1102.52048011089	3
0	3364	1105.427434755719	2
0	3370	1106.897426341075	2
0	3378	1108.852425884451	0
0	3386	1110.717701262791	2
0	3399	1116.083627577635	3
0	3405	1118.10550270823	2
0	3408	1118.975781018028	1
0	3414	1120.664132864794	0
0	3418	1121.111457850548	3
0	3427	1126.244493083094	3
0	3429	1126.748959068089	2
0	3437	1130.755127173031	2
0	3441	1131.387372168709	1
0	3454	1136.661701033936	1
0	3459	1136.884406748224	2
0	3465	1139.078638355826	0
0	3472	1142.357639968393	1
0	3476	1142.454211457629	2
0	3478	1143.267791374701	1
0	3480	1144.452963782122	1
0	3490	1148.221098226259	2
0	3502	1153.569767992242	3
0	3505	1154.733366337718	2
0	3515	1158.716598764757	1
0	3530	1164.228268977484	3
0	3537	1166.793782288092	0
0	3545	1169.888796917159	1
0	3561	1175.866819038052	2
0	3568	1178.310064997756	2
0	3579	1181.725256107278	3
0	3584	1183.773142990652	1
0	3593	1186.99308996973	0
0	3597	1187.02970574563	1
0	3607	1191.144130454861	0
0	3613	1192.190252303142	1
0	3615	1193.672572953157	0
0	3622	1196.259216650039	2
0	3625	1197.32828392903	0
0	3629	1197.520896705562	3
0	3630	1198.35940460523	2
0	3639	1203.246435469245	3
0	3647	1208.656593666408	1
0	3658	1214.259810686806	1
0	3670	1218.324078532169	2
0	3674	1219.378161601369	0
0	3678	1219.539758096212	1
0	3693	1224.720935138404	2
0	3712	1230.713950550412	3
0	3719	1233.361323284914	1
0	3723	1235.237685077005	0
0	3729	1236.388601811365	2
0	3740	1242.053744250438	4
0	3744	1244.291310368221	1
0	3748	1246.359470082679	0
0	3753	1247.86187434359	1
0	3756	1249.855870993111	3
0	3765	1253.499770107907	1
0	3772	1255.978515518709	0
0	3774	1256.640541401228	2
0	3782	1259.401811627201	1
0	3795	1265.244086507005	1
0	3813	1270.560867420626	2
0	3827	1274.460283140764	0
0	3835	1275.671741680005	3
0	3841	1277.999308052004	2
0	3847	1280.182916749967	1
0	3854	1281.141242391658	2
0	3855	1282.008563926324	0
0	3864	1286.221478994465	3
0	3876	1291.95569574716	4
0	3887	1297.473985853134	3
0	3898	1302.885749507224	1
0	3909	1307.700919807422	3
0	3915	1308.549226546421	4
0	3920	1310.903971384625	2
0	3924	1312.290734948817	0
0	3931	1313.854060625186	1
0	3938	1316.430286953222	1
0	3940	1316.550060639623	3
0	3949	1319.158017495874	4
0	3957	1321.85590056446	0
0	3966	1325.02700518234	5
0	3978	1330.953361358953	1
0	3985	1334.274720718962	0
0	3987	1334.644933968779	0
0	3993	1336.658106490731	6
0	3996	1339.36928463704	5
0	4002	1342.373328459676	6
0	4010	1347.715207823546	7
0	4017	1353.080571988126	1
0	4027	1358.565622363699	2
0	4033	1362.257791156184	6
0	4041	1364.55484476033	1
0	4044	1365.516199620443	5
0	4050	1367.385308194667	0
0	4058	1369.906112154474	6
0	4072	1375.324882297072	1
0	4080	1379.139256587946	1
0	4088	1381.134004703717	2
0	4097	1385.083217823299	5
0	4105	1386.604143888218	2
0	4122	1392.247852040682	6
0	4137	1397.633316036774	7
0	4138	1398.370633235315	1
0	4151	1403.147259070765	3
0	4160	1405.980166634306	2
0	4165	1407.892918180671	0
0	4169	1408.606016590021	8
0	4175	1412.017407684824	7
0	4182	1414.259916349541	3
0	4193	1420.17805549851	1
0	4204	1424.237438473263	0
0	4211	1426.010495750227	1
0	4219	1429.9117109609	2
0	4228	1431.902896417066	3
0	4244	1437.625844067655	2
0	4245	1437.864817318395	6
0	4249	1438.783364638575	5
0	4261	1442.86581122828	4
0	4272	1446.83143958309	1
0	4275	1447.837522890877	3
0	4279	1448.108366045396	2
0	4294	1453.764367830933	4
0	4297	1454.768632268538	4
0	4301	1455.377227737794	3
0	4312	1459.507758793647	1
0	4322	1462.458771399797	1
0	4332	1464.513814588303	5
0	4352	1469.60013508144	2
0	4373	1474.967748917632	6
0	4374	1475.186802713891	0
0	4391	1480.836741233936	1
0	4402	1484.143383378284	5
0	4406	1484.852653039379	2
0	4412	1485.837667570675	2
0	4416	1486.891713645301	1
0	4424	1489.253792184631	1
0	4428	1490.103119772735	1
0	4434	1491.218460897675	6
0	4435	1491.337613676667	0
0	4440	1492.294700378325	5
0	4442	1492.625380130128	0
0	4453	1496.859986937365	6
0	4462	1500.992137235001	0
0	4466	1501.951451735331	1
0	4475	1506.757716359795	0
0	4480	1507.224258724127	1
0	4493	1512.31628710869	7
0	4503	1516.979464580415	0
0	4505	1517.405483598244	6
0	4509	1517.796969887561	1
0	4520	1523.058834455668	1
0	4533	1528.188914189341	1
0	4535	1528.543774807119	0
0	4543	1531.146043491788	5
0	4551	1533.380315135459	1
0	4554	1534.640196471002	0
0	4559	1535.649173175339	4
0	4569	1538.618517585325	5
0	4582	1543.884858654805	2
0	4589	1546.607646008364	1
0	4600	1549.127217140973	2
0	4601	1549.364657932664	4
0	4616	1554.764922125956	5
0	4626	1558.323472843499	1
0	4634	1559.911758556256	6
0	4646	1564.890252101227	0
0	4652	1565.40930738928	7
0	4655	1566.822102541912	0
0	4662	1570.829377199283	1
0	4673	1576.676987619365	8
0	4682	1581.999339441189	7
0	4686	1582.527628634816	2
0	4696	1587.67245002486	8
0	4697	1587.779614182881	1
0	4710	1593.572199699461	1
0	4720	1597.775703766376	0
0	4724	1598.592482293017	1
0	4742	1604.389926975818	9
0	4757	1610.258858665466	0
0	4761	1610.33807439333	10
0	4772	1615.814399252871	1
0	4779	1618.847723681715	9
0	4790	1621.680032778291	1
0	4793	1623.152738831125	8
0	4803	1626.404140427352	0
0	4809	1626.894418462172	9
0	4820	1631.371884180575	0
0	4825	1632.382080777541	1
0	4840	1637.714221796014	1
0	4847	1640.319838101733	0
0	4859	1643.38957915012	1
0	4876	1648.944506698514	10
0	4881	1650.087005448986	0
0	4883	1650.434436384824	9
0	4897	1654.797623538172	2
0	4900	1655.751890780748	1
0	4914	1660.40432265144	2
0	4922	1663.504776039621	1
0	4931	1666.261535591438	1
0	4950	1671.898357831292	8
0	4954	1672.121298263074	2
0	4971	1677.25266965408	2
0	4976	1678.377453304006	0
0	4989	1682.48215039842	1
0	5001	1685.440520927776	7
0	5005	1686.646752435707	1
0	5010	1687.465382507066	1
0	5014	1687.985830537502	2
0	5034	1693.517043133492	3
0	5055	1699.501229421229	8
0	5071	1704.780965417617	4
0	5072	1704.83106717001	0
0	5082	1709.246286770437	0
0	5087	1710.375925832654	1
0	5096	1713.650787418826	7
0	5106	1716.334362161106	8
0	5121	1721.680746184422	9
0	5123	1722.292178251078	3
0	5139	1727.512890329112	2
0	5146	1730.310917635793	2
0	5152	1732.117281236212	1
0	5156	1732.570418751326	1
0	5175	1738.308214531739	2
0	5188	1742.010437172725	8
0	5196	1743.400205066421	3
0	5220	1749.317935325432	4
0	5231	1753.230211985287	1
0	5240	1755.207961634959	2
0	5242	1756.112952367516	3
0	5261	1760.965302276884	3
0	5274	1764.207782808803	2
0	5284	1766.476862290867	2
0	5295	1769.278897447158	2
0	5306	1771.949768575367	3
0	5308	1772.597111264017	7
0	5325	1777.110820378868	4
0	5337	1780.73833148961	1
0	5344	1782.309670474606	3
0	5347	1782.949990740384	2
0	5368	1788.209712661563	5
0	5372	1789.024915097627	4
0	5381	1791.050118523993	0
0	5384	1791.556368227471	6
0	5392	1793.68161730584	1
0	5416	1799.349994461278	3
0	5427	1802.567496558301	3
0	5439	1805.062901348101	4
0	5446	1806.699591545611	2
0	5462	1810.460230255026	5
0	5469	1812.310074900388	0
0	5480	1815.662332535481	1
0	5493	1820.289162149772	5
0	5498	1820.746761045411	2
0	5505	1822.951884775412	1
0	5515	1825.616693732559	4
0	5521	1826.167954378754	6
0	5523	1827.064906815768	5
0	5538	1831.198045817196	5
0	5549	1834.121911371939	4
0	5558	1836.212273743694	6
0	5560	1836.584344187163	1
0	5575	1840.546795032912	0
0	5582	1841.438493961693	1
0	5584	1841.842117778838	3
0	5604	1846.758721349287	7
0	5613	1848.960404689645	0
0	5625	1852.707759318399	1
0	5629	1854.127217775098	6
0	5645	1857.948217723277	2
0	5648	1858.742223782346	2
0	5655	1860.424853807306	1
0	5667	1863.508836585088	7
0	5683	1867.998824666942	0
0	5689	1868.805671155909	8
0	5703	1873.822449679244	2
0	5712	1878.173013598185	1
0	5721	1879.818489231625	2
0	5724	1880.790403362948	7
0	5726	1881.34116292081	1
0	5739	1885.081733764838	1
0	5746	1887.566134742691	0
0	5748	1887.592301623083	6
0	5759	1890.228206902267	2
0	5760	1890.673457186322	5
0	5769	1893.625727265831	1
0	5779	1895.800534428786	2
0	5786	1899.039591917411	1
0	5794	1901.149718909282	6
0	5800	1903.659325512814	1
0	5809	1906.3314067691	7
0	5811	1906.715551714298	6
0	5825	1911.708834749869	2
0	5834	1913.968139902216	1
0	5840	1916.070939268674	0
0	5846	1917.528960183718	2
0	5857	1922.84527782536	7
0	5865	1927.891006244929	6
0	5870	1928.51279952702	1
0	5884	1933.543948592375	2
0	5885	1934.120820780052	5
0	5890	1936.084639223635	1
0	5892	1936.131261829509	1
0	5903	1938.692601066305	2
0	5921	1943.760051509355	6
0	5936	1949.189649651515	1
0	5943	1952.194002235892	5
0	5957	1955.155482903811	3
0	5964	1957.380879302614	0
0	5971	1959.397866445246	4
0	5977	1961.067953685521	5
0	5994	1966.328457507527	1
0	5995	1967.278948788998	4
0	5997	1967.368140309694	2
0	6015	1971.894599528973	5
0	6018	1973.314911051183	1
0	6034	1976.967456429488	2
0	6056	1982.434609295092	2
0	6060	1983.698782319891	1
0	6062	1983.967549851742	1
0	6064	1984.105988756741	0
0	6077	1987.885166767522	4
0	6081	1988.171545756505	2
0	6099	1993.692958462973	2
0	6115	1999.547169429473	3
0	6120	2000.726535469521	2
0	6129	2004.253277983972	1
0	6135	2005.331954848011	5
0	6140	2006.915091927735	0
0	6142	2007.576807761102	4
0	6150	2010.84114126115	1
0	6157	2013.722870969101	3
0	6160	2014.953059828137	1
0	6168	2016.02053165947	2
0	6176	2018.964202343491	2
0	6185	2021.961533692655	3
0	6190	2023.683456781543	0
0	6198	2026.997921452847	3
0	6211	2032.231612664637	4
0	6217	2035.686154769609	3
0	6220	2037.63828376412	2
0	6223	2038.162198953671	1
0	6227	2038.167343532191	2
0	6240	2043.739676556773	1
0	6247	2045.966568704464	2
0	6258	2049.035331943063	1
0	6279	2054.902441660864	2
0	6287	2056.993157632641	1
0	6299	2060.026534171067	3
0	6321	2065.327991936812	2
0	6332	2068.084745218737	0
0	6336	2068.976037449545	1
0	6338	2069.730374156961	1
0	6340	2070.207739557249	2
0	6345	2070.75034844921	1
0	6348	2071.347967117324	0
0	6360	2076.31301438761	0
0	6364	2076.609093908212	1
0	6378	2082.281750263871	2
0	6391	2086.893427094554	1
0	6396	2087.674803194582	2
0	6415	2093.560957363799	1
0	6416	2094.012010377358	1
0	6433	2098.776310587061	2
0	6443	2101.846469867154	1
0	6449	2103.509966973906	0
0	6454	2104.627948901375	2
0	6470	2110.497567095786	2
0	6485	2115.501942053429	3
0	6487	2116.190578063827	1
0	6493	2118.437667947952	1
0	6496	2119.039102352452	2
0	6503	2120.867317436139	0
0	6507	2120.936727125655	1
0	6520	2126.379782029885	2
0	6524	2126.983163058869	1
0	6538	2132.125619013087	1
0	6544	2133.961535765316	0
0	6547	2135.210041632169	0
0	6555	2137.187279570374	1
0	6563	2140.574180139452	1
0	6573	2142.616523524273	2
0	6591	2148.369052014073	1
0	6614	2154.307628256494	2
0	6616	2154.705496669858	1
0	6631	2159.104384080148	0
0	6636	2159.500731605563	1
0	6655	2164.605832447756	2
0	6674	2169.733141667435	2
0	6680	2171.900342951751	1
0	6684	2173.026881684192	0
0	6689	2174.096875349399	0
0	6693	2175.382141132832	1
0	6697	2176.717907508597	1
0	6699	2176.954540896455	1
0	6713	2181.131525601719	2
0	6724	2185.13484594621	0
0	6730	2186.724009457503	3
0	6731	2186.988848646166	2
0	6743	2192.06437995936	2
0	6753	2197.31014968198	1
0	6759	2199.70101977267	1
0	6768	2202.555102257516	1
0	6769	2202.814163460505	0
0	6777	2204.831618470016	1
0	6788	2208.110578420564	2
0	6798	2212.855263154598	1
0	6804	2213.675268351325	2
0	6819	2219.346608648767	2
0	6837	2225.203056401332	3
0	6854	2231.035066806004	3
0	6857	2231.876956947958	0
0	6863	2236.417193702532	2
0	6867	2236.428355882634	3
0	6870	2238.204192512081	2
0	6879	2241.77653965679	1
0	6894	2247.225073881904	2
0	6895	2247.677602794012	1
0	6907	2251.660903921342	0
0	6911	2252.688546104581	3
0	6914	2254.367912482114	2
0	6920	2257.356771538609	1
0	6926	2258.448396072249	1
0	6932	2261.233926399256	2
0	6936	2262.786340787535	1
0	6943	2264.208761395413	2
0	6951	2267.508198090239	0
0	6961	2270.135174282819	1
0	6966	2272.253941851078	1
0	6969	2273.201092487659	0
0	6977	2275.249735154204	1
0	6992	2280.89866842678	2
0	6997	2282.888761771952	1
0	7010	2286.147659972303	2
0	7016	2288.29433493816	0
0	7024	2291.245903935742	3
0	7038	2297.090861617348	2
0	7041	2297.698125473565	1
0	7044	2299.025285462144	2
0	7050	2302.315784716039	0
0	7055	2302.334361030481	3
0	7061	2307.930177937488	1
0	7074	2313.807516758091	4
0	7081	2318.848032301169	3
0	7086	2319.295889445341	1
0	7094	2323.314613555202	2
0	7102	2324.558724661584	3
0	7118	2330.373492344043	1
0	7124	2332.783266272274	0
0	7136	2335.781971963349	2
0	7140	2337.107451221433	2
0	7154	2341.050506848603	3
0	7163	2343.851207543156	2
0	7168	2345.67211269505	1
0	7173	2346.060715395485	3
0	7180	2349.261857085622	0
0	7188	2351.64021177403	2
0	7197	2357.07334094005	1
0	7202	2358.961863155818	1
0	7204	2359.320034055964	2
0	7215	2362.349441999796	2
0	7225	2366.572207445622	1
0	7231	2367.553504220902	3
0	7244	2372.934139253099	0
0	7248	2373.279925834148	1
0	7261	2377.96912821335	2
0	7265	2378.403024014312	2
0	7283	2384.067038288799	3
0	7292	2387.181364509269	2
0	7303	2389.812324116	1
0	7312	2392.602908911524	1
0	7320	2395.106405506136	1
0	7324	2395.576679731247	2
0	7337	2399.705936041769	1
0	7344	2400.725962975754	2
0	7352	2402.941842344234	0
0	7354	2403.225057925556	1
0	7367	2406.088423810194	2
0	7374	2409.063522829435	0
0	7382	2411.517237527988	3
0	7386	2413.92827729263	2
0	7391	2416.550583118099	0
0	7396	2416.887763251078	1
0	7405	2422.163467996747	2
0	7409	2424.529376532643	1
0	7418	2428.12594683328	1
0	7430	2432.743235621712	0
0	7436	2433.590846983942	3
0	7440	2434.944095035193	0
0	7447	2438.887071133585	1
0	7454	2443.848819538013	2
0	7460	2444.818899941624	1
0	7472	2450.155923677252	0
0	7476	2450.725165819044	3
0	7490	2455.862964216846	2
0	7501	2461.258638906752	1
0	7518	2467.24972792947	2
0	7521	2467.667024002286	1
0	7529	2471.085890242241	2
0	7537	2473.239103833207	3
0	7557	2479.09331296989	1
0	7576	2484.553194972214	3
0	7591	2488.593194884361	2
0	7598	2489.627911726705	2
0	7603	2490.840143624569	1
0	7620	2495.173766339424	3
0	7628	2498.089208045852	0
0	7633	2499.565927069395	0
0	7639	2500.49574358458	1
0	7643	2502.810880189173	2
0	7654	2505.791894682677	4
0	7655	2506.289997420271	3
0	7672	2511.14157517114	3
0	7686	2516.525317771238	0
0	7690	2516.950473325786	4
0	7693	2518.482758534367	3
0	7705	2522.815705965266	4
0	7711	2525.949622863319	2
0	7718	2527.878462564193	5
0	7719	2528.877346987712	4
0	7729	2533.140113106922	1
0	7733	2534.37307510559	3
0	7738	2535.299286128015	0
0	7747	2538.696485388319	3
0	7760	2544.110160261619	1
0	7771	2547.714656821563	0
0	7776	2549.513487480807	4
0	7786	2554.630556873971	1
0	7790	2556.496471011192	3
0	7792	2557.113515853873	2
0	7802	2559.729670148802	2
0	7817	2564.965076686808	1
0	7827	2567.566377549194	0
0	7839	2570.458126358681	4
0	7856	2576.352616559242	1
0	7865	2579.31858113978	1
0	7875	2581.513433370733	2
0	7881	2582.997601713746	0
0	7889	2585.413114503489	3
0	7891	2586.267384253666	1
0	7897	2586.993953329505	4
0	7911	2592.204143391683	3
0	7912	2592.290237420695	0
0	7923	2597.357921373093	1
0	7938	2602.938785995583	2
0	7945	2605.561654657007	3
0	7948	2606.413234762375	2
0	7957	2608.248240508598	4
0	7962	2610.013842492246	3
0	7967	2612.375067059643	1
0	7972	2613.479445009486	3
0	7987	2618.777191592494	2
0	7991	2619.11156164924	1
0	7995	2620.580919553752	2
0	8004	2623.22058810456	0
0	8006	2623.401841631618	1
0	8013	2624.746980976773	1
0	8020	2626.440492414047	0
0	8031	2629.923591808643	1
0	8052	2635.460442188423	2
0	8072	2640.494813424297	3
0	8081	2643.831088906967	1
0	8094	2646.267779123266	4
0	8096	2646.592872362111	0
0	8100	2648.300644825207	3
0	8110	2651.281947007398	2
0	8123	2656.00856595742	1
0	8127	2656.321693917033	1
0	8139	2659.735244045262	2
0	8148	2662.160646532657	2
0	8162	2665.899778230808	0
0	8170	2667.402246066131	1
0	8183	2671.401966736186	1
0	8192	2672.953714169789	3
0	8207	2677.452105786295	0
0	8214	2678.755694932764	1
0	8215	2679.228737400956	0
0	8232	2684.440025368467	2
0	8236	2686.543370189026	2
0	8251	2690.34493708447	3
0	8255	2691.808823234866	1
0	8263	2694.474807191517	0
0	8269	2695.994657061057	1
0	8278	2699.87858137418	0
0	8285	2701.865996136557	2
0	8299	2707.359886892134	4
0	8301	2708.440995393085	3
0	8311	2712.828226043604	4
0	8323	2718.542253302404	5
0	8324	2718.695141939446	1
0	8337	2724.217196741135	1
0	8338	2725.03982242965	0
0	8349	2729.667638788226	1
0	8356	2732.178742700832	0
0	8363	2734.675960161717	2
0	8364	2734.864698740886	4
0	8376	2739.880595723394	1
0	8379	2741.253076076618	1
0	8392	2745.012884074351	1
0	8408	2750.544637680514	5
0	8429	2755.71408760454	2
0	8440	2758.997809782044	4
0	8451	2761.067089336686	2
0	8468	2766.109665276943	3
0	8473	2767.590557022721	3
0	8485	2770.533067156205	0
0	8487	2771.012410253871	2
0	8491	2771.687340114259	1
0	8495	2771.791160361603	1
0	8516	2777.644027196331	3
0	8524	2780.033270851589	2
0	8537	2782.901025707828	3
0	8557	2788.022675488372	4
0	8577	2793.288674723352	2
0	8584	2795.334402006587	2
0	8589	2796.709007993916	1
0	8601	2799.256962501672	3
0	8602	2799.752841247009	0
0	8618	2804.4013582617	5
0	8622	2805.941301103562	4
0	8635	2810.22227500821	1
0	8636	2810.399104970617	0
0	8643	2811.954554954545	2
0	8646	2812.740245418502	0
0	8654	2815.986475076056	3
0	8666	2820.997380435462	1
0	8673	2823.410521999001	2
0	8682	2826.418922213721	1
0	8687	2826.682469351445	2
0	8695	2829.76042637706	3
0	8704	2832.342110006832	4
0	8719	2837.43720348109	5
0	8734	2842.5739831333	2
0	8747	2847.264382752122	1
0	8753	2847.889249452385	1
0	8774	2853.479817020935	2
0	8778	2854.737556923643	4
0	8783	2855.699525979113	1
0	8796	2858.5165036153	5
0	8818	2863.534179898207	3
0	8821	2864.842097165294	0
0	8828	2867.080786179748	4
0	8831	2868.52981641469	0
0	8837	2869.343966914569	4
0	8850	2874.551700755716	1
0	8853	2875.374921174835	3
0	8868	2880.281540238759	4
0	8880	2884.833771015864	3
0	8886	2885.711315626739	5
0	8900	2890.945390992793	1
0	8919	2896.486119908043	2
0	8929	2898.979916082346	4
0	8939	2901.620273794974	5
0	8948	2904.037999002725	2
0	8955	2906.477040913998	0
0	8960	2907.300770548868	1
0	8964	2907.495147780278	1
0	8980	2912.551961828717	2
0	8984	2913.768952304378	1
0	8998	2918.006058968018	1
0	9003	2918.193768665888	2
0	9025	2924.146298600821	2
0	9033	2926.653920578301	1
0	9038	2927.737019149001	0
0	9047	2929.882844721427	2
0	9048	2929.976984767944	4
0	9055	2933.133149502098	1
0	9058	2933.412455228501	1
0	9067	2935.750365796959	2
0	9071	2936.628653329681	3
0	9085	2941.319783567678	1
0	9095	2945.364990599687	2
0	9104	2947.253450054437	2
0	9122	2952.26360254385	3
0	9128	2954.531613265858	2
0	9144	2958.082651351108	2
0	9150	2959.982814026413	1
0	9162	2962.956095833909	1
0	9168	2963.943580905436	2
0	9173	2965.038664934337	1
0	9182	2967.243897798234	1
0	9193	2969.342064392748	3
0	9195	2969.616042958573	2
0	9214	2974.813983148425	2
0	9219	2975.649518219518	0
0	9232	2979.872192995851	3
0	9239	2982.269254676295	0
0	9248	2985.12415250204	3
0	9253	2988.410384481771	2
0	9259	2990.72294684662	1
0	9260	2991.005286674712	2
0	9274	2996.524604704226	3
0	9284	2999.988845673501	0
0	9292	3002.378720376403	4
0	9297	3005.259478318618	3
0	9301	3006.716519403151	1
0	9306	3008.194144362113	1
0	9322	3013.592528551579	1
0	9336	3017.602347684204	0
0	9346	3019.546336442926	1
0	9352	3021.129880066259	2
0	9354	3021.687059323065	0
0	9356	3021.776452743445	0
0	9367	3025.138177008363	2
0	9380	3030.756552538131	3
0	9388	3035.441527902376	1
0	9392	3036.409352222685	2
0	9403	3041.904476407212	4
0	9410	3045.259570512802	3
0	9418	3047.691935815844	1