version 3
run General-17-20240430-20:30:44-5506
attr configname General
attr datetime 20240430-20:30:44
attr datetimef 20240430-203044
attr experiment General
attr inifile omnetpp.ini
attr iterationvars $0=false
attr iterationvarsd false
attr iterationvarsf false-
attr measurement $0=false
attr network Supermarket
attr processid 5506
attr repetition 7
attr replication #7
attr resultdir results
attr runnumber 17
attr seedset 17
config network Supermarket
config repeat 10
config num-rngs 10
config **.use_random_strategy false

vector 0 Supermarket queueSizeOverTime:vector ETV
attr recordingmode vector
attr source updateQueue
attr title queueSizeOverTime
vector 1 Supermarket customerWaitingTime:vector ETV
attr interpolationmode none
attr recordingmode vector
attr source customerFinished
attr title "cust waiting time"
0	7	5.802087848075	1
0	15	11.028949631378	1
0	22	15.857115749737	0
0	27	16.29948013369	1
0	40	21.803918227088	1
0	53	26.826582672773	1
0	57	28.027145310188	0
0	66	31.898853040765	0
0	70	31.982496853219	1
0	79	36.34244987939	0
0	86	37.485901442356	1
0	101	43.432493021944	1
0	121	49.410847246414	2
0	136	54.103971660718	1
0	140	54.767298238352	2
0	145	56.240297458134	0
0	157	59.882574480026	0
0	162	60.274977197638	1
0	170	62.601720307137	1
0	181	65.836599286646	1
0	201	70.981421960052	2
0	215	74.88134374353	0
0	219	76.468292319217	0
0	224	76.805341893341	1
0	239	81.833209360949	1
0	259	87.106602205894	2
0	260	87.202901332291	1
0	269	89.248347708955	1
0	280	92.826512489001	2
0	285	93.494469967554	0
0	301	98.730655232909	1
0	322	104.502477930392	2
0	331	107.3303132297	0
0	341	109.558321763062	1
0	357	115.470984741114	1
0	361	115.516853739507	2
0	362	115.52166605543	1
0	373	118.60335165728	0
0	384	121.475582604529	1
0	391	123.70005991275	0
0	401	126.488979260903	1
0	412	129.626017010537	0
0	421	131.624682395486	1
0	426	133.103250451386	0
0	441	137.427872141125	1
0	454	142.015535066722	0
0	460	143.341865788913	1
0	477	148.47471866873	1
0	484	149.234907439678	2
0	505	154.84729316307	0
0	509	154.936184256339	1
0	519	157.118074347965	0
0	530	160.278499737383	1
0	549	165.410396493972	2
0	550	165.45724717295	0
0	559	168.066044451205	0
0	562	169.07497940352	1
0	570	171.353860097472	1
0	580	174.56796959776	0
0	587	176.513974143891	1
0	589	177.814571029624	1
0	603	181.989554536762	1
0	613	185.144659872514	0
0	623	187.973507805029	1
0	644	193.943882697495	2
0	650	195.359110258289	0
0	662	199.187562530395	1
0	667	200.470567314072	0
0	680	204.380065981066	1
0	682	205.37812575174	1
0	700	209.908307078527	2
0	704	211.06732032611	0
0	717	214.995355228428	1
0	722	216.599066722555	0
0	736	220.44710342004	1
0	753	225.509453917388	2
0	773	230.768139167223	2
0	774	231.130435635337	0
0	778	232.365720147381	1
0	784	233.730955093287	1
0	794	236.327480989275	1
0	816	241.738614105153	2
0	835	247.501100209774	2
0	839	248.210613656087	1
0	849	251.212504405524	0
0	856	252.679185347864	1
0	857	252.933933431864	1
0	874	257.712586806388	2
0	888	261.886157272852	1
0	893	262.665413937297	0
0	897	263.257271972251	1
0	907	266.155515012915	0
0	915	268.572073742281	1
0	937	274.384218564955	2
0	943	276.440469162886	0
0	948	278.437503479072	0
0	950	278.522531074473	1
0	956	279.38730064989	1
0	964	282.936513672702	1
0	973	284.415331827243	1
0	992	289.701924564549	2
0	1012	295.524813002673	2
0	1032	301.047315196599	2
0	1052	306.10507262661	2
0	1059	308.242722912693	1
0	1068	310.67737463501	0
0	1073	311.218539793509	1
0	1076	311.781106146517	1
0	1084	314.956416514584	1
0	1088	315.664221868154	1
0	1095	316.62746335077	2
0	1117	322.370947493705	2
0	1124	324.590337959816	1
0	1141	328.018846277379	2
0	1159	333.422018343581	2
0	1160	333.582133302231	1
0	1163	333.999202240844	1
0	1174	337.088483375031	1
0	1187	338.96809598943	2
0	1190	340.382963393696	0
0	1204	344.468692114342	1
0	1222	350.005454367608	0
0	1226	350.043276579117	1
0	1237	353.351308646262	1
0	1239	353.614183893658	0
0	1247	355.154883178414	1
0	1268	361.034396066561	2
0	1276	363.429607372387	0
0	1289	366.513059478251	1
0	1295	368.674821370395	0
0	1300	369.569286697542	0
0	1305	371.562366877564	0
0	1309	372.054612827951	1
0	1313	374.65711317514	1
0	1322	377.88167915819	1
0	1338	383.541773464761	1
0	1353	388.024592042318	0
0	1358	388.982698287114	1
0	1360	389.318527155438	0
0	1376	394.239287520291	1
0	1383	397.055630139072	0
0	1394	399.760732768101	1
0	1409	404.320288148591	0
0	1415	405.169491837264	1
0	1424	407.79973903729	0
0	1431	410.02420264843	0
0	1437	411.136444547909	1
0	1440	412.221252075276	0
0	1450	417.128832578889	1
0	1468	422.976885106412	1
0	1469	423.044451712627	0
0	1487	428.333741134496	1
0	1496	431.385934849966	0
0	1499	432.162364983462	0
0	1505	433.856904680373	1
0	1519	439.252115473848	1
0	1525	441.170731486401	0
0	1527	441.402652284711	0
0	1536	444.329919126349	1
0	1555	450.312144852708	1
0	1557	451.233710309603	0
0	1572	455.664850817527	1
0	1580	458.369874564232	0
0	1587	460.092292936169	0
0	1594	460.897396680898	1
0	1611	466.520587629172	1
0	1619	469.833544706227	0
0	1622	469.998694874114	0
0	1629	472.198132407385	1
0	1641	476.872452658252	0
0	1647	477.837781573645	1
0	1660	482.980522238649	1
0	1663	484.188803698519	0
0	1678	488.914607983781	1
0	1687	491.73974818713	0
0	1698	494.870477906195	1
0	1709	498.245988488431	0
0	1719	500.275352758821	1
0	1721	500.511342803948	0
0	1728	503.24557066476	0
0	1732	504.409017501747	0
0	1737	506.217731925659	1
0	1747	511.309334733058	1
0	1756	514.880970913568	0
0	1760	516.386920479243	0
0	1764	516.633694893448	1
0	1775	522.57627197844	1
0	1791	527.743309003534	1
0	1793	528.466530816048	0
0	1798	530.114002608811	0
0	1806	532.854325614637	1
0	1808	534.233785646851	0
0	1818	538.4488845421	1
0	1830	543.623760352842	1
0	1831	543.871675626492	0
0	1848	548.944199464982	1
0	1871	554.547403382603	2
0	1872	554.691703717923	1
0	1878	556.237611735936	0
0	1889	559.76324484311	1
0	1907	565.128855859162	2
0	1917	568.092116578481	0
0	1924	570.252366085071	1
0	1942	575.390467844671	2
0	1953	578.760340090607	1
0	1962	580.461431796197	2
0	1965	581.484349509933	1
0	1978	585.244987289885	1
0	1980	585.43429069547	0
0	1987	586.452401605901	1
0	1993	588.067039191723	0
0	2007	592.128393364838	1
0	2028	597.519076634898	2
0	2046	602.6222630844	2
0	2052	604.524003129452	1
0	2056	604.65419483022	0
0	2064	607.704515034917	0
0	2068	607.750863468974	1
0	2079	611.090058917645	1
0	2089	613.643913249253	1
0	2094	615.276639183286	0
0	2106	619.241894304287	1
0	2128	625.108935507946	2
0	2138	628.472363476991	0
0	2147	630.420405948768	1
0	2155	632.218968935661	0
0	2168	635.767147576437	1
0	2174	637.989404269259	1
0	2183	640.524408800876	0
0	2190	641.510878107278	1
0	2208	646.518578111194	2
0	2218	649.618740697159	0
0	2227	652.088434312493	1
0	2239	655.520932187559	0
0	2246	657.312710131752	1
0	2260	661.216565818174	1
0	2263	661.792676275826	0
0	2268	662.703165083891	1
0	2278	665.753916163697	0
0	2288	668.491332644131	1
0	2311	674.198611759813	2
0	2318	675.788206053432	0
0	2325	678.220725734253	0
0	2330	679.480636350577	1
0	2347	685.351875946856	1
0	2348	685.773344831424	0
0	2356	689.223475518286	0
0	2360	690.253952361995	1
0	2365	690.902283644535	1
0	2379	696.319476076633	1
0	2396	701.437760910483	2
0	2415	706.815293544901	2
0	2416	707.112279018852	0
0	2427	710.714509780866	1
0	2436	712.551482653476	1
0	2455	717.733650985405	2
0	2475	723.024928016586	2
0	2478	723.741353252668	1
0	2480	724.369912403639	1
0	2490	727.330514153928	0
0	2498	728.98379732738	1
0	2517	734.05184885836	0
0	2524	734.968623474471	1
0	2525	735.201488131538	0
0	2542	740.397308985235	1
0	2543	740.866513116866	1
0	2563	746.273857288992	2
0	2566	747.278311672853	0
0	2574	749.605775290749	0
0	2578	751.089625186755	1
0	2582	751.384204641448	1
0	2584	752.080955674986	0
0	2596	756.522816469891	1
0	2609	761.934550925622	1
0	2612	763.034319013121	0
0	2622	766.962086608631	0
0	2628	767.819726357468	1
0	2644	773.437572101363	1
0	2652	775.56823398115	0
0	2665	778.950746583286	1
0	2674	781.528636495347	0
0	2685	784.153874823124	1
0	2697	787.93282331945	0
0	2704	789.378130833617	1
0	2717	793.533747570938	0
0	2724	794.681115549988	1
0	2740	800.022846785372	0
0	2745	800.293615724658	1
0	2751	802.37048396957	0
0	2757	804.373696850144	0
0	2763	805.905682770768	1
0	2764	805.965002400102	0
0	2775	810.998092311201	1
0	2785	815.601281201466	0
0	2792	816.573514947434	1
0	2807	822.266031145583	1
0	2829	828.092731337993	2
0	2830	828.353195466566	0
0	2833	828.75797861931	1
0	2836	829.6141492991	0
0	2846	833.521884446497	1
0	2849	834.729457550101	0
0	2855	836.665893568075	0
0	2860	838.738467954564	1
0	2871	843.909513651858	1
0	2887	849.200518254422	1
0	2895	851.515190037315	0
0	2906	854.809388305059	1
0	2909	855.185090862448	0
0	2927	859.987933748866	1
0	2948	865.05269906367	2
0	2969	870.791195502037	2
0	2983	875.333388981177	0
0	2989	876.711442123398	1
0	2990	876.75322458637	0
0	2995	879.034050276385	0
0	2997	879.042471422112	1
0	3007	882.444132113129	1
0	3014	884.885491232501	0
0	3023	887.827641355571	1
0	3025	888.557410323525	1
0	3038	893.474006941541	1
0	3047	896.316806862246	0
0	3060	899.419423413229	1
0	3078	905.014983476371	2
0	3091	908.072770929428	1
0	3097	909.645885372417	0
0	3106	911.010318728861	1
0	3114	914.20919943298	0
0	3123	916.412498558404	1
0	3140	921.419781721428	2
0	3146	923.453956729966	0
0	3159	927.021191547623	1
0	3161	927.646994426731	0
0	3168	930.700494362855	1
0	3178	932.818143404087	1
0	3184	934.591987617893	0
0	3196	938.659415956352	1
0	3204	941.222701402845	0
0	3215	944.473173953125	1
0	3226	947.649258639195	0
0	3230	948.528428983873	0
0	3237	950.407772704957	1
0	3251	955.700356478102	1
0	3252	956.3260444717	0
0	3266	960.864917831726	1
0	3272	963.578820290159	0
0	3282	965.887989230917	1
0	3291	969.00546191877	0
0	3303	971.146845494162	1
0	3306	972.163276094475	0
0	3317	976.348896715788	1
0	3321	977.294023952679	0
0	3337	982.09536908008	1
0	3350	985.714248822533	0
0	3353	986.104998812775	0
0	3359	987.485880988416	1
0	3373	992.566385531331	1
0	3384	996.618905192822	0
0	3391	997.567051618359	1
0	3410	1003.20543384843	0
0	3415	1003.337925553088	1
0	3416	1003.365490314666	0
0	3433	1008.56742918305	1
0	3447	1012.476267613585	0
0	3453	1013.948163232998	1
0	3475	1019.909354736562	2
0	3486	1023.084162651793	0
0	3490	1023.977303493651	1
0	3495	1024.932538597145	1
0	3506	1028.111412521796	0
0	3514	1030.233142325886	1
0	3534	1036.148650630143	2
0	3540	1037.523734572692	0
0	3552	1041.405341421951	1
0	3566	1045.799287336297	1
0	3575	1047.067384158492	2
0	3576	1047.425510354339	0
0	3587	1051.654776686917	0
0	3591	1052.454127108443	1
0	3595	1053.914780018383	0
0	3602	1056.301827239336	0
0	3607	1058.018740537341	1
0	3608	1058.652527794126	1
0	3621	1063.676464594898	1
0	3636	1068.982349956871	1
0	3655	1074.401609563266	2
0	3657	1074.727482541695	0
0	3672	1079.641980417536	1
0	3693	1085.260950801892	2
0	3694	1085.30305676046	1
0	3698	1086.064122277193	1
0	3717	1090.819014181847	2
0	3723	1092.781091082607	0
0	3736	1096.409507810369	1
0	3756	1101.56536412169	2
0	3768	1104.976215994337	1
0	3771	1105.74158312613	1
0	3777	1107.000018409451	2
0	3798	1112.8786387603	0
0	3802	1112.88866640697	1
0	3803	1113.907280390149	0
0	3817	1118.267488115698	1
0	3821	1119.1782516269	0
0	3830	1123.014841750849	1
0	3836	1124.097194811094	1
0	3838	1124.505799628331	0
0	3840	1124.787132768657	0
0	3852	1129.335945297729	1
0	3866	1134.64459365024	1
0	3874	1137.270733554963	0
0	3885	1140.173278034197	1
0	3894	1143.484633610117	0
0	3896	1143.681376760007	0
0	3903	1145.616719040552	1
0	3920	1150.840478536904	1
0	3929	1153.691078765083	0
0	3939	1156.020653667392	1
0	3942	1157.262679902253	0
0	3945	1158.473828988031	0
0	3954	1161.14267703262	1
0	3970	1166.696350185199	1
0	3985	1171.762976716737	2
0	3997	1175.697837532729	0
0	3999	1175.812704132169	0
0	4006	1177.618845380376	1
0	4023	1183.270655315368	1
0	4034	1186.158376654841	0
0	4042	1188.304824060992	1
0	4047	1189.43373345665	0
0	4052	1191.747151345829	0
0	4057	1193.426753272648	1
0	4061	1193.932052072602	1
0	4066	1196.101189198437	0
0	4076	1199.439950877566	1
0	4090	1204.817836765664	1
0	4102	1209.594180663	0
0	4109	1210.429044907213	1
0	4128	1216.166204190113	2
0	4141	1220.185601858653	0
0	4150	1221.84578699665	1
0	4154	1223.001013818894	0
0	4162	1225.418066518843	1
0	4171	1227.610122216631	1
0	4183	1230.942910353653	0
0	4192	1232.98482002667	1
0	4200	1235.181448653919	0
0	4213	1238.461330281569	1
0	4222	1242.055755198233	0
0	4224	1242.154828618744	0
0	4229	1243.433883644174	0
0	4233	1243.721568929263	1
0	4245	1249.575253915972	1
0	4260	1254.842324028489	1
0	4266	1257.154282704924	0
0	4279	1260.46177616692	1
0	4283	1261.404670945833	0
0	4292	1265.683360534951	0
0	4296	1266.380025491815	1
0	4311	1271.567020668413	1
0	4330	1276.796537098007	2
0	4338	1279.585306695777	0
0	4347	1281.876244116572	1
0	4366	1286.928591098401	2
0	4370	1287.792688619345	0
0	4376	1290.483501467504	1
0	4384	1292.134669141143	1
0	4391	1293.932799655827	0
0	4399	1296.576817607738	0
0	4406	1298.097880716899	1
0	4422	1303.58270159899	1
0	4442	1309.249792037529	2
0	4445	1310.287368764399	1
0	4465	1315.090096338184	2
0	4470	1317.019383304169	0
0	4485	1321.02704515401	1
0	4487	1321.249727266142	1
0	4493	1322.723622931282	0
0	4507	1326.641356350386	1
0	4513	1328.767508718066	1
0	4528	1332.024583087999	2
0	4547	1337.1650632543	2
0	4568	1342.314001380696	2
0	4569	1342.320540985325	1
0	4579	1344.733435731497	1
0	4583	1346.08529080916	1
0	4592	1347.973474946103	2
0	4611	1353.509957890607	0
0	4615	1353.53655564971	1
0	4636	1358.933666032503	2
0	4646	1362.771193706431	1
0	4655	1364.302288078001	2
0	4671	1369.422823292318	0
0	4675	1369.612569796616	1
0	4676	1369.642107250982	1
0	4692	1374.223490777074	0
0	4698	1375.352438186291	1
0	4710	1378.647389229617	0
0	4719	1380.403507703911	1
0	4735	1385.290388871334	1
0	4739	1385.483071889724	2
0	4758	1390.603628907348	2
0	4765	1392.299233342634	1
0	4780	1396.580024032383	2
0	4782	1396.995038622288	0
0	4794	1400.969495035471	0
0	4800	1401.787665655366	1
0	4807	1404.9486278228	1
0	4816	1407.0879721099	1
0	4817	1407.131033606708	1
0	4825	1409.152563951672	0
0	4828	1410.330442301115	0
0	4836	1412.929716001027	1
0	4852	1418.341301165283	1
0	4868	1423.544859815967	0
0	4872	1423.669869554689	1
0	4879	1425.617720840842	0
0	4891	1429.112933383318	1
0	4901	1431.888610062536	0
0	4911	1435.070622198046	1
0	4915	1436.47386110201	0
0	4927	1440.097606320395	1
0	4936	1443.244685483391	0
0	4944	1445.188443472371	1
0	4945	1445.335253660095	0
0	4962	1450.811507018511	1
0	4982	1456.299432809925	2
0	5002	1461.85752560384	2
0	5005	1462.226627326681	1
0	5016	1465.528259047186	1
0	5025	1467.46725113829	2
0	5046	1472.901170109626	2
0	5053	1475.121038669134	0
0	5058	1476.185006796382	0
0	5064	1478.326165389497	1
0	5079	1483.354915866157	1
0	5098	1488.514929061284	2
0	5119	1493.604479295429	2
0	5122	1494.346290874872	1
0	5125	1495.040863604863	1
0	5142	1499.26858174195	2
0	5158	1504.431125482889	0
0	5163	1504.718067433214	1
0	5168	1506.775530205217	1
0	5171	1507.094437212911	1
0	5181	1510.002372408628	1
0	5186	1510.296351962019	2
0	5188	1510.367042478751	1
0	5190	1510.826499463634	0
0	5207	1515.584324546386	1
0	5213	1517.473824048759	0
0	5225	1520.795780070587	1
0	5248	1526.588957046154	2
0	5261	1531.009971721557	1
0	5268	1532.169914697758	2
0	5276	1534.253889877578	0
0	5284	1536.532592845954	0
0	5290	1538.034472533264	1
0	5303	1543.297679933249	1
0	5320	1548.004802340752	0
0	5324	1548.409152135714	1
0	5327	1549.462910574855	1
0	5344	1553.515305263684	2
0	5352	1556.090008803521	1
0	5357	1556.750706177083	0
0	5365	1559.011684823776	1
0	5369	1560.181032527466	0
0	5383	1564.020762666589	1
0	5401	1569.407212351444	2
0	5408	1571.470719935367	0
0	5419	1574.622939334246	1
0	5420	1575.071832303418	1
0	5427	1577.019422123785	0
0	5438	1579.818461746438	1
0	5442	1581.211896415912	0
0	5448	1582.322393845411	0
0	5456	1585.40134919248	1
0	5470	1591.172812194558	1
0	5471	1591.769091343386	0
0	5474	1592.131520649065	0
0	5486	1596.787445247168	1
0	5490	1598.025087325945	0
0	5500	1602.697997206817	1
0	5516	1608.216482200888	1
0	5535	1613.505749666593	2
0	5538	1614.228917383583	0
0	5553	1619.033599965037	1
0	5556	1619.842419110351	0
0	5564	1623.70196339604	1
0	5571	1624.41000019386	1
0	5582	1628.159670222545	0
0	5586	1629.207717419946	0
0	5592	1630.330763692963	1
0	5610	1635.453165466427	1
0	5611	1635.541735242581	0
0	5628	1641.344548996766	1
0	5636	1643.86752047401	0
0	5644	1646.431982376142	1
0	5659	1650.907489007567	0
0	5666	1651.954783547432	1
0	5680	1655.41559494624	0
0	5689	1657.183230295074	1
0	5690	1657.753024460977	0
0	5694	1658.815237567755	0
0	5696	1660.094537805063	0
0	5702	1662.256267672633	1
0	5712	1667.283763006558	1
0	5727	1672.620879505524	1
0	5747	1677.882895776067	2
0	5748	1678.085959171058	0
0	5757	1681.033477774001	0
0	5763	1683.07718541077	1
0	5780	1688.684680169445	1
0	5783	1689.742233811174	0
0	5786	1690.293853125064	1
0	5793	1693.028621105006	0
0	5798	1694.348527616119	1
0	5800	1694.56056655233	0
0	5812	1699.701173868958	1
0	5818	1702.70374366792	0
0	5821	1702.780508097489	0
0	5826	1705.429890649157	1
0	5836	1710.434532521056	1
0	5851	1715.684767338676	1
0	5853	1716.207608626453	0
0	5857	1717.045515495233	0
0	5863	1719.557509168979	0
0	5869	1721.631368055936	1
0	5881	1727.294692858351	1
0	5887	1729.51305668475	0
0	5896	1732.804522727379	1
0	5909	1737.404797681488	0
0	5914	1737.81895365682	1
0	5917	1739.217526137359	0
0	5927	1742.886285278942	1
0	5938	1747.586086210557	0
0	5943	1748.416893868703	1
0	5955	1752.7676900638	0
0	5960	1754.222272114126	1
0	5974	1759.382330820426	1
0	5990	1764.2165729152	0
0	5993	1764.766318293401	0
0	5998	1765.34850953938	1
0	6011	1770.675115477988	1
0	6013	1771.627069221921	0
0	6026	1776.343123149005	0
0	6031	1776.592770379964	1
0	6032	1777.395056042467	0
0	6043	1781.608838940734	1
0	6047	1783.020831909726	0
0	6057	1787.161653688639	1
0	6072	1792.184891891662	1
0	6086	1797.145913253186	0
0	6091	1797.493661295619	1
0	6111	1802.895692426242	2
0	6120	1805.432890282012	0
0	6125	1807.341764925162	0
0	6131	1808.682121193266	1
0	6146	1813.873047918311	1
0	6148	1814.08155342098	0
0	6150	1814.527009818584	1
0	6164	1819.150663951874	1
0	6184	1824.388258750081	2
0	6207	1830.293526999416	2
0	6208	1830.399994209174	1
0	6221	1833.772694012496	0
0	6224	1834.054957028475	0
0	6230	1835.569042979503	1
0	6240	1839.326265569541	1
0	6247	1841.324369413309	1
0	6264	1846.398105677447	2
0	6286	1852.127551178445	2
0	6294	1854.933840038483	0
0	6300	1856.870816367912	1
0	6305	1857.603589623931	1
0	6326	1863.267500277839	2
0	6328	1863.789064519687	0
0	6335	1865.865722889076	1
0	6338	1866.690456699925	0
0	6346	1869.264074190517	1
0	6347	1870.191225335701	1
0	6358	1873.948468386775	0
0	6363	1874.487096391616	1
0	6377	1879.959203243021	1
0	6388	1883.351483824893	0
0	6396	1885.352427076314	1
0	6415	1890.634889995445	2
0	6419	1891.247284645449	1
0	6431	1895.495498921953	0
0	6436	1895.934362914877	1
0	6444	1898.3233513789	0
0	6455	1901.88121575862	1
0	6461	1903.731139675945	0
0	6465	1904.62056368403	0
0	6473	1906.980205002472	1
0	6478	1908.987685135214	0
0	6488	1912.69203232182	1
0	6495	1916.798609328922	0
0	6498	1917.319401671642	0
0	6503	1918.639750429194	1
0	6507	1921.562919918912	0
0	6509	1921.799130411001	0
0	6513	1923.988996518308	1
0	6519	1929.318995698819	1
0	6531	1934.970227639422	1
0	6550	1940.472292738499	1
0	6563	1944.838283053248	0
0	6570	1946.104779248822	1
0	6588	1951.599349826689	0
0	6593	1951.723493167895	1
0	6595	1952.273473841018	0
0	6606	1956.04464459186	0
0	6611	1956.844972144577	1
0	6617	1959.904430241088	0
0	6626	1962.665769790064	1
0	6643	1967.689101489258	1
0	6647	1969.289236656506	0
0	6660	1973.104158767031	1
0	6665	1974.270189960482	0
0	6673	1976.373038666552	0
0	6677	1978.148493135695	0
0	6681	1978.424829534718	1
0	6696	1984.155701778128	1
0	6699	1985.657435873871	0
0	6710	1989.971716602796	1
0	6717	1992.878299043163	0
0	6724	1995.443242030216	1
0	6730	1997.57677122729	0
0	6740	2000.883905119726	1
0	6755	2006.041535677852	1
0	6759	2006.757648710507	0
0	6776	2011.828435600966	1
0	6794	2017.094076939391	2
0	6814	2022.813992676789	2
0	6817	2023.63636491296	1
0	6833	2028.036817674523	2
0	6848	2031.831437797398	1
0	6854	2033.08291460783	2
0	6857	2033.517095580462	1
0	6859	2034.068645887426	0
0	6865	2036.14177937165	0
0	6872	2038.687014183726	1
0	6882	2042.912704102693	0
0	6889	2044.471119797554	1
0	6899	2049.052616281433	0
0	6904	2049.738763335858	1
0	6910	2052.530981524845	1
0	6918	2054.748321297577	1
0	6927	2057.046096325617	0
0	6940	2060.292031779884	1
0	6943	2061.068535647936	0
0	6955	2065.412959744453	0
0	6961	2065.870600355788	1
0	6974	2071.451593560629	0
0	6979	2071.720586536451	1
0	6994	2076.746575975324	1
0	7009	2081.555589467287	0
0	7015	2082.628746704663	1
0	7027	2086.530881359474	0
0	7034	2088.078302239998	1
0	7045	2091.669966578948	0
0	7054	2093.5325131868	1
0	7072	2098.812685802112	2
0	7089	2102.865100424851	0
0	7096	2103.884284588507	1
0	7100	2105.10845502105	1
0	7102	2106.595992375279	0
0	7105	2106.804547586013	0
0	7112	2109.24327202374	1
0	7128	2114.571337793487	1
0	7149	2120.274516520089	2
0	7155	2122.154890649135	0
0	7166	2125.556246046674	1
0	7169	2126.541965076001	0
0	7175	2128.377506365183	1
0	7187	2131.426197831983	1
0	7206	2136.461839461698	2
0	7212	2138.023625285947	0
0	7228	2142.291662984061	1
0	7249	2147.612330188508	2
0	7251	2148.428438444388	1
0	7263	2151.936507680801	0
0	7271	2153.052679662592	1
0	7283	2155.924629560669	1
0	7289	2157.481489293976	0
0	7297	2158.560980350244	1
0	7309	2162.260046097565	0
0	7311	2162.39635261579	0
0	7316	2163.642530630342	1
0	7328	2168.106741361552	0
0	7335	2169.311197441536	1
0	7336	2169.723600454743	0
0	7338	2169.759092332795	0
0	7346	2174.653543662977	1
0	7359	2180.568431706632	1
0	7360	2181.801888449233	0
0	7370	2186.123291077789	1
0	7373	2187.495870247481	0
0	7379	2190.464825841831	0
0	7384	2191.229502381289	1
0	7394	2196.345414828973	1
0	7413	2201.803672325796	1
0	7422	2204.509458485173	0
0	7434	2207.420743754132	1
0	7442	2209.940438493504	0
0	7448	2211.931286477015	0
0	7454	2212.550348201299	1
0	7468	2217.650355930438	1
0	7473	2219.107795628833	0
0	7488	2223.045737879581	1
0	7498	2226.091939919859	0
0	7510	2228.801476063437	1
0	7523	2231.706480526249	0
0	7527	2232.607248444691	0
0	7534	2234.223895380504	1
0	7549	2239.746884379534	1
0	7550	2239.87164780928	0
0	7568	2245.595280009786	1
0	7575	2247.610310286862	0
0	7585	2250.742192942182	1
0	7599	2255.728466130908	0
0	7601	2255.75846376491	0
0	7608	2256.691552778239	1
0	7615	2259.739391878945	0
0	7623	2262.485859589883	1
0	7632	2265.948097862068	0
0	7639	2268.135975930839	1
0	7648	2271.450875548645	0
0	7656	2274.0514074706	1
0	7664	2277.674345306353	0
0	7672	2279.427975860889	1
0	7688	2284.955916646634	1
0	7697	2287.557032737416	0
0	7704	2289.812651567276	0
0	7710	2290.637966175097	1
0	7713	2292.043031085746	0
0	7725	2296.511608264175	1
0	7742	2302.337396819143	1
0	7744	2303.208795937126	0
0	7754	2306.591542100417	0
0	7757	2307.784971351385	0
0	7761	2307.856845564906	1
0	7767	2312.147959906257	0
0	7772	2313.136656605404	1
0	7782	2318.55896242312	1
0	7793	2322.504208357537	0
0	7799	2323.859216018811	1
0	7800	2323.890215779769	0
0	7813	2329.404265572781	1
0	7828	2334.879443285287	1
0	7847	2339.927223188103	2
0	7850	2340.816400889421	1
0	7859	2343.272481980848	0
0	7863	2344.580028251277	0
0	7869	2345.829300676239	1
0	7885	2351.34529383853	1
0	7900	2355.76716661814	0
0	7908	2356.915099021745	1
0	7913	2358.546639988083	0
0	7926	2362.571794945047	1
0	7934	2364.922280328461	0
0	7945	2368.02526412648	1
0	7956	2371.844906314392	0
0	7959	2372.711204311809	0
0	7966	2373.892206507268	1
0	7979	2379.104894997317	0
0	7984	2379.781105917644	1
0	7986	2380.596358023237	0
0	7989	2381.392202284535	0
0	7997	2385.041220045414	1
0	8006	2390.091721585252	1
0	8014	2393.088842778115	0
0	8021	2395.98371441732	1
0	8037	2401.167425637597	1
0	8056	2406.681440293787	2
0	8057	2406.837531087103	1
0	8067	2409.851358561427	0
0	8069	2409.895348607793	0
0	8076	2412.002326908054	1
0	8082	2414.495192262575	0
0	8092	2417.748731440397	1
0	8097	2419.829922219623	0
0	8099	2420.22921859368	0
0	8105	2423.209331847725	1
0	8108	2425.597926763583	0
0	8111	2427.317148198372	0
0	8115	2428.880713820688	1
0	8122	2434.208504541309	1
0	8132	2439.854313826186	1
0	8152	2445.376394780816	1
0	8165	2449.486098026971	0
0	8171	2450.420270059721	1
0	8175	2451.406911109105	0
0	8180	2453.412557823811	0
0	8187	2455.468674488829	1
0	8191	2456.64501459489	0
0	8199	2460.374186277502	0
0	8203	2461.030507490037	1
0	8213	2466.219340516485	1
0	8217	2467.957473030311	0
0	8228	2471.412821721749	1
0	8230	2471.890486224671	0
0	8237	2474.371993771054	0
0	8243	2476.663655947426	1
0	8245	2477.332319306789	0
0	8248	2480.383034241035	0
0	8252	2482.610347932202	1
0	8259	2487.795212282331	1
0	8272	2493.419233866266	1
0	8277	2495.908497191148	0
0	8285	2498.697769167365	1
0	8301	2504.00839255098	1
0	8307	2506.013048811463	0
0	8321	2509.449007220564	1
0	8332	2512.710907041673	0
0	8341	2514.794120126402	1
0	8359	2519.82367018773	2
0	8362	2520.636122284223	0
0	8369	2522.731827087583	0
0	8375	2524.942573226288	1
0	8385	2529.019694215734	0
0	8388	2529.876871685262	1
0	8392	2530.777750882784	1
0	8396	2531.737816737729	0
0	8407	2536.642116629517	1
0	8421	2541.824505736351	1
0	8440	2547.1709780863	2
0	8459	2552.260645029831	2
0	8466	2554.269241009488	0
0	8476	2557.743054604621	1
0	8479	2558.215104638831	0
0	8489	2562.089362371129	1
0	8492	2562.514069888854	1
0	8497	2563.219275987705	1
0	8508	2566.768490083629	0
0	8516	2568.351515864486	1
0	8529	2572.407761732347	0
0	8537	2573.732979346298	1
0	8543	2576.5354660016	0
0	8554	2579.216553227276	1
0	8570	2583.934412431666	0
0	8576	2584.216951635199	1
0	8584	2587.260283467941	0
0	8593	2589.389290304853	1
0	8609	2594.759280477299	0
0	8613	2595.164392461533	1
0	8622	2597.33033550612	0
0	8624	2597.787626285339	0
0	8632	2600.187484668333	1
0	8640	2602.790681737707	0
0	8647	2605.305075504349	1
0	8655	2608.494669451143	0
0	8662	2610.857933552002	1
0	8669	2613.406534260369	0
0	8677	2616.442939337341	1
0	8688	2621.26238846383	0
0	8693	2621.468453265026	1
0	8709	2626.774681609355	1
0	8725	2631.686015045152	0
0	8730	2632.151422817957	1
0	8734	2633.275419075156	0
0	8736	2633.721388313918	0
0	8747	2638.084028548327	1
0	8748	2638.595591745105	0
0	8753	2641.32996573788	0
0	8759	2643.441368339815	1
0	8760	2643.963323395	0
0	8767	2648.562633276217	1
0	8779	2653.931637665255	1
0	8780	2655.141095387399	0
0	8787	2658.87827184086	0
0	8791	2659.524478838079	1
0	8803	2665.326329927424	1
0	8817	2670.579009947365	1
0	8839	2676.209013625977	2
0	8845	2678.416994428376	0
0	8854	2681.19128921523	1
0	8860	2682.014645438872	1
0	8880	2687.606848418478	2
0	8891	2690.508326015432	0
0	8900	2693.032216466496	1
0	8904	2694.055994078748	1
0	8916	2696.791144661604	0
0	8922	2698.087310282745	1
0	8939	2703.118204897614	0
0	8946	2703.710422306786	1
0	8966	2709.373055267845	2
0	8978	2712.738036696566	0
0	8986	2714.753433936041	1
0	8998	2718.278223329572	1
0	9005	2719.913081400445	0
0	9009	2720.063717742216	1
0	9013	2721.634138663766	0
0	9026	2725.583030048523	1
0	9046	2731.296478687551	2
0	9064	2736.565951085182	2
0	9067	2737.095560529966	0
0	9074	2739.623797031117	1
0	9086	2742.48777767713	1
0	9092	2744.947394156945	1
0	9095	2745.393268147714	0
0	9104	2747.82983277994	1
0	9108	2749.404866685506	0
0	9120	2752.845086002022	1
0	9124	2753.724103186277	0
0	9127	2754.618551344379	0
0	9133	2757.244537816264	0
0	9138	2758.001600241752	1
0	9146	2763.719961504917	0
0	9150	2763.756878797428	1
0	9161	2769.332644407169	1
0	9175	2774.508619632104	1
0	9193	2779.932320282559	0
0	9197	2779.937649616969	1
0	9200	2780.649982028986	0
0	9215	2785.250747198004	1
0	9234	2790.611960320033	2
0	9254	2796.31366820866	2
0	9256	2796.970177373846	1
0	9259	2797.181649347882	1
0	9264	2798.659074775757	0
0	9276	2802.269505195783	1
0	9283	2804.732323311034	0
0	9295	2808.130503406746	1
0	9315	2813.951670499284	2
0	9316	2814.086915356338	1
0	9318	2814.304376821613	0
0	9327	2817.324953247906	0
0	9336	2819.846134195335	1
0	9351	2825.411128352161	1
0	9364	2829.087356739909	0
0	9366	2829.630987001232	0
0	9372	2830.946473548885	1
0	9386	2836.052306409458	0
0	9390	2836.305409251943	1
0	9404	2842.208597782764	1
0	9416	2846.277916635734	0
0	9424	2848.081657644592	1
0	9436	2852.570559083596	0
0	9443	2854.059064075814	1
0	9451	2856.892262320497	0
0	9461	2859.408380417616	1
0	9470	2862.190219701265	0
0	9480	2865.200993054311	1
0	9499	2870.685938197884	2
0	9505	2871.748403216012	0
0	9512	2873.486524850127	0
0	9518	2875.912985039991	0
0	9522	2876.218339632961	1
0	9525	2878.374461390424	1
0	9534	2882.186214849117	1
0	9548	2887.753285037118	1
0	9569	2893.682667911283	2
0	9588	2898.793300414223	2
0	9592	2899.803735540129	0
0	9594	2900.386727371019	1
0	9607	2904.049526393179	1
0	9609	2904.617093229082	1
0	9627	2909.725857162381	2
0	9648	2914.845355525146	2
0	9658	2917.813435657065	0
0	9663	2919.101886262418	1
0	9669	2920.102320918579	1
0	9678	2923.216931633066	0
0	9680	2923.399819623096	1
0	9683	2923.885821398346	0
0	9689	2925.26372167142	1
0	9705	2930.456144285154	1
0	9706	2930.709863463184	0
0	9708	2930.789362865499	0
0	9720	2936.005070110316	1
0	9728	2939.634078107074	0
0	9732	2940.411411483304	0
0	9737	2941.450689426389	1
0	9748	2946.496720462105	1
0	9762	2951.709680947241	1
0	9775	2955.306180475044	0
0	9784	2956.935867076971	1
0	9790	2959.603377190882	0
0	9800	2961.961664353961	1
0	9821	2967.328936530042	2
0	9833	2971.019627229191	0
0	9839	2972.538168820202	1
0	9843	2972.784272167597	1
0	9851	2975.11465487373	0
0	9863	2977.805588786954	1
0	9882	2982.950532912275	2
0	9883	2983.024926366748	0
0	9893	2985.970781370881	0
0	9902	2988.749862081137	1
0	9918	2993.951936199328	1
0	9937	2999.812067402758	2
0	9940	3000.339380259391	1
0	9948	3002.827750652677	0
0	9958	3005.265594330149	1
0	9973	3010.567044622262	1
0	9979	3011.172404509502	2
0	9999	3016.531088431364	2
0	10002	3017.469147798602	1
0	10020	3021.982823847791	2
0	10021	3022.856234145231	0
0	10027	3024.673911276971	0
0	10036	3027.848069756057	1
0	10049	3033.053134030893	1