version 3
run General-11-20240430-20:30:43-5481
attr configname General
attr datetime 20240430-20:30:43
attr datetimef 20240430-203043
attr experiment General
attr inifile omnetpp.ini
attr iterationvars $0=false
attr iterationvarsd false
attr iterationvarsf false-
attr measurement $0=false
attr network Supermarket
attr processid 5481
attr repetition 1
attr replication #1
attr resultdir results
attr runnumber 11
attr seedset 11
config network Supermarket
config repeat 10
config num-rngs 10
config **.use_random_strategy false

vector 0 Supermarket queueSizeOverTime:vector ETV
attr recordingmode vector
attr source updateQueue
attr title queueSizeOverTime
vector 1 Supermarket customerWaitingTime:vector ETV
attr interpolationmode none
attr recordingmode vector
attr source customerFinished
attr title "cust waiting time"
0	7	5.196092311759	1
0	9	8.036656238023	0
0	13	11.008945581736	1
0	20	16.384534564335	1
0	32	22.238867220003	1
0	45	27.395622238982	1
0	57	31.33140305709	0
0	65	33.043648668564	1
0	79	37.562801074004	0
0	86	38.680871608899	1
0	87	38.871068766457	0
0	103	43.761611651164	0
0	108	44.193815211997	1
0	112	45.815397451864	0
0	114	46.348344945697	0
0	121	49.279991546644	1
0	127	52.455013578872	0
0	133	54.6674600034	1
0	144	59.957903656641	1
0	159	65.093304722102	1
0	167	68.120042242691	0
0	178	70.506136604583	1
0	183	72.093450902493	0
0	198	75.998727507422	1
0	199	76.776952898826	0
0	201	77.361352821926	0
0	208	79.918409174889	0
0	213	81.020125085254	1
0	223	86.346235655247	1
0	226	87.686997353564	0
0	237	91.753902015508	1
0	250	96.809172311098	1
0	263	100.645926312424	0
0	272	102.629947392734	1
0	278	104.28474713594	0
0	288	107.387674514086	0
0	292	107.94674158003	1
0	293	109.032268238369	0
0	296	109.312696716513	0
0	302	113.238135055171	1
0	315	119.188183844553	1
0	316	119.630232544032	0
0	330	125.106684552736	1
0	345	130.688113317822	1
0	360	135.738334210005	0
0	364	136.434489699311	1
0	379	141.137891873248	0
0	384	141.723567357052	1
0	399	146.338340610962	0
0	405	147.484840285497	1
0	411	149.810339864924	0
0	425	153.02507325867	1
0	428	154.282250186892	0
0	430	154.643584913804	0
0	441	158.410688678266	1
0	443	158.768953833495	0
0	454	164.054762762736	1
0	470	169.226431582121	1
0	491	174.935617224311	2
0	500	177.855191083507	1
0	511	179.975833369417	2
0	525	183.765061126206	0
0	527	184.024635483625	0
0	533	185.575758619698	1
0	543	190.009255872104	0
0	549	190.779104797634	1
0	564	196.028044570935	1
0	575	199.266693748764	1
0	578	199.834140786783	0
0	586	201.427153436233	1
0	599	205.612005506175	0
0	608	207.141013772226	1
0	624	211.830140447244	0
0	630	212.933455858379	1
0	638	215.148689282358	0
0	649	218.828327504452	1
0	665	223.649764817208	0
0	670	224.048877056455	1
0	689	229.061850426486	2
0	700	232.337347757305	0
0	710	234.822671258124	1
0	718	237.824131315572	0
0	724	239.441260703491	1
0	728	240.005333417561	1
0	749	245.798888190417	2
0	769	251.749640720431	2
0	778	254.426057162347	0
0	787	256.75352452416	1
0	791	258.295347739478	1
0	800	260.747754052515	0
0	809	262.651807290037	1
0	810	262.909205539618	0
0	814	264.388119374869	0
0	817	265.879083601991	1
0	825	268.538206416416	1
0	836	272.831953226821	0
0	843	274.525146654342	1
0	852	278.956583449501	0
0	859	280.384017956444	1
0	875	285.67422522069	1
0	887	289.471180196153	0
0	896	291.566880531144	1
0	912	296.227005910129	0
0	918	297.053847114789	1
0	929	300.521877540513	0
0	938	302.545245994814	1
0	958	308.451430319576	2
0	960	309.213511651615	0
0	969	311.754822949415	0
0	978	314.22450824501	1
0	995	319.886237567756	1
0	1012	325.067987621297	0
0	1016	325.286980210337	1
0	1017	325.292605671798	0
0	1031	331.025742087395	0
0	1035	331.125630265799	1
0	1046	335.289250760805	1
0	1052	336.530838530044	1
0	1061	339.340998077997	0
0	1068	341.59751755814	1
0	1075	342.854288173954	0
0	1085	345.654576185508	0
0	1091	347.231904425192	1
0	1101	351.474127631865	0
0	1107	352.401836918434	1
0	1117	356.372091127092	0
0	1125	358.281393029028	1
0	1128	359.591261166263	0
0	1138	363.50869884598	1
0	1151	368.590627479832	1
0	1159	371.192204732448	0
0	1170	374.147134257014	1
0	1190	379.998285702196	2
0	1194	380.487036157397	1
0	1209	385.045623466372	2
0	1219	388.407308368593	0
0	1225	390.484654951842	0
0	1230	390.740586444735	1
0	1246	396.252354486612	1
0	1249	396.94879647286	0
0	1263	401.303175205597	1
0	1273	404.80695723288	1
0	1283	407.010368681512	2
0	1288	408.97145906405	0
0	1302	412.924628193722	1
0	1322	418.620672390097	2
0	1331	421.584830315083	0
0	1342	424.468383993953	1
0	1353	427.533171711725	0
0	1356	427.86682145111	1
0	1363	429.730497886193	1
0	1374	433.119558156117	0
0	1377	433.765429512943	0
0	1383	435.189134714426	1
0	1384	435.348646383966	1
0	1397	440.469622490345	0
0	1401	440.702330398606	1
0	1416	445.762449902715	1
0	1420	447.068322051783	0
0	1424	447.980335456436	0
0	1432	450.869046211243	1
0	1438	453.365186365086	0
0	1446	456.336972967722	1
0	1453	458.9662948529	0
0	1461	462.268287744374	1
0	1475	467.579118175666	1
0	1489	471.63761113165	0
0	1492	472.189096101793	0
0	1497	473.532974942821	1
0	1499	474.435950199958	0
0	1503	475.864452932613	0
0	1509	479.014376183274	1
0	1510	479.362525001986	0
0	1520	484.719437304419	1
0	1524	487.158117814223	0
0	1532	490.717943568016	1
0	1543	496.698334670859	1
0	1547	498.856686743559	0
0	1559	501.789494619007	1
0	1574	507.564747849713	1
0	1595	512.902993206634	2
0	1599	514.226010989516	0
0	1603	515.398392001048	0
0	1612	518.698470911245	1
0	1627	524.64298058278	1
0	1632	526.439402952558	1
0	1640	527.889642741066	0
0	1649	530.035406061449	1
0	1650	531.03176005534	0
0	1668	535.837839646033	1
0	1670	536.438908954152	0
0	1686	541.059331705795	1
0	1706	546.570958243917	2
0	1722	552.318101604005	0
0	1727	552.433637766169	1
0	1730	553.678459392629	0
0	1733	554.386850273119	1
0	1745	557.461714437	1
0	1761	562.063691310237	0
0	1767	563.161390237046	1
0	1776	565.385470066568	0
0	1788	568.907534982545	1
0	1790	568.989285279186	0
0	1807	574.369214828128	1
0	1828	579.937951292612	2
0	1830	580.028925110122	0
0	1836	581.899507645169	1
0	1840	583.376139399481	0
0	1846	584.994101546474	1
0	1847	585.13446653646	0
0	1860	590.260728639553	1
0	1864	591.427103322467	0
0	1876	595.936507781039	1
0	1892	601.627605312507	1
0	1895	602.562964200625	0
0	1905	606.536437716687	0
0	1911	607.310821912953	1
0	1919	611.159013056315	0
0	1925	612.397049803988	1
0	1935	616.905000964995	0
0	1941	618.107823950008	1
0	1947	620.707211742413	0
0	1956	623.435066032226	1
0	1972	629.418142651909	1
0	1973	629.724382175835	0
0	1983	632.659526191538	0
0	1990	635.19859220763	1
0	1999	638.783024547042	0
0	2005	640.612329544968	1
0	2021	645.69198293146	1
0	2030	648.645475705737	0
0	2041	651.267730550377	1
0	2064	657.207692421276	2
0	2067	657.810792124946	0
0	2081	662.569149427816	1
0	2097	667.692448509044	1
0	2103	668.03990960424	2
0	2123	673.325974578971	2
0	2134	676.350815217713	0
0	2140	678.242324863095	1
0	2144	678.435699041702	1
0	2153	681.312228356604	0
0	2164	683.539142759053	1
0	2173	686.657190102154	0
0	2180	688.315292887392	0
0	2185	688.788437224926	1
0	2197	694.176757356737	1
0	2201	694.320314333077	1
0	2213	698.162410317457	0
0	2217	699.397384431913	1
0	2239	705.266040767777	2
0	2247	708.297466807768	0
0	2254	710.630087851316	1
0	2259	711.211190664909	1
0	2274	716.107319140111	0
0	2278	716.507126824931	1
0	2279	716.637454767248	0
0	2284	717.808752771467	0
0	2287	718.9494041187	0
0	2292	721.509032542352	1
0	2303	727.42864711117	1
0	2312	731.433472651057	0
0	2318	732.890703600133	1
0	2332	738.315992379328	1
0	2336	739.172879541177	0
0	2353	744.053683351958	1
0	2360	746.267001734	0
0	2371	749.359508530237	1
0	2383	752.749580291216	0
0	2387	754.147972658044	0
0	2391	754.379306146177	1
0	2404	758.559889167782	0
0	2407	759.974088174409	0
0	2411	760.261960378616	1
0	2415	763.231983501	0
0	2419	765.284329891089	0
0	2423	765.411326505245	1
0	2429	770.791605329142	1
0	2437	774.745169537493	0
0	2440	775.699134973112	0
0	2444	776.651890432929	1
0	2446	779.653993217974	0
0	2450	781.677694104147	1
0	2458	787.166244192748	1
0	2467	792.454709250481	1
0	2477	796.400052022306	0
0	2483	798.277821172496	1
0	2484	799.012676375802	0
0	2490	800.914668707176	0
0	2496	804.151239411674	1
0	2509	809.159793481931	1
0	2513	810.854278093905	0
0	2517	811.528185383185	0
0	2520	813.768110121952	0
0	2524	814.734161803966	1
0	2526	816.866889026018	0
0	2530	820.440513280222	1
0	2537	826.182478158038	1
0	2549	831.835448344473	1
0	2563	837.332411012382	1
0	2568	838.187910925483	0
0	2580	841.807815076318	0
0	2585	842.423547881658	1
0	2597	847.597749069453	0
0	2602	848.161919788693	1
0	2604	848.526217324895	0
0	2617	853.765005857919	1
0	2620	854.327935661771	0
0	2632	859.41781596048	1
0	2635	860.731654537264	0
0	2646	865.031502801927	1
0	2661	869.941243987183	0
0	2665	870.103451669451	1
0	2672	873.611634217786	0
0	2679	876.01995201572	1
0	2687	879.510803092157	0
0	2695	881.955272449182	1
0	2712	887.453093216989	1
0	2733	893.349585473772	2
0	2740	895.143292519033	1
0	2742	895.566665804017	0
0	2744	896.409839906732	0
0	2751	898.519958119143	1
0	2759	901.945280981717	0
0	2767	904.30699125468	1
0	2782	909.603370365689	1
0	2793	913.07202176459	0
0	2801	915.329304235524	1
0	2803	916.287965314113	0
0	2820	920.535402697048	1
0	2821	920.697940747024	0
0	2839	925.955523816173	1
0	2852	930.00125503284	0
0	2855	930.995809412448	0
0	2861	931.516941226789	1
0	2867	934.686531097863	0
0	2875	936.874302251966	1
0	2881	939.281161609807	0
0	2889	942.135629408996	1
0	2907	947.686937510272	1
0	2931	953.54698090535	2
0	2934	954.365153729685	0
0	2946	958.101735351842	0
0	2950	958.583993279844	1
0	2955	960.986330760761	1
0	2959	962.05478785129	0
0	2966	963.893331533767	1
0	2982	969.640446971407	1
0	3002	975.532108011892	2
0	3014	978.41804227559	0
0	3025	981.393412955342	1
0	3042	986.838473801039	2
0	3046	987.714242610965	1
0	3051	989.189171244044	1
0	3055	990.232140147014	0
0	3064	991.915696059124	1
0	3075	995.872575334161	0
0	3081	997.471092238325	0
0	3085	997.520421302182	1
0	3086	997.790175815931	0
0	3099	1003.518319662663	1
0	3108	1006.500583732621	0
0	3117	1008.947949358265	1
0	3132	1014.738465723119	1
0	3149	1019.890863576674	2
0	3150	1019.985811431548	0
0	3152	1020.077234792758	1
0	3167	1025.211646370127	1
0	3181	1029.388549896775	0
0	3187	1030.268532281977	1
0	3193	1031.954829277474	0
0	3205	1036.193464348095	1
0	3215	1038.790175204285	0
0	3217	1039.441888166943	0
0	3225	1041.244038626088	1
0	3232	1044.884937986501	0
0	3240	1046.890027062271	1
0	3255	1052.079486627599	1
0	3266	1055.532514543273	0
0	3274	1057.560019731058	1
0	3292	1063.082854367795	2
0	3312	1068.864461571446	2
0	3326	1073.22349546652	0
0	3334	1074.777256662494	1
0	3340	1076.933537397186	1
0	3352	1079.966894351414	2
0	3359	1082.069915596747	0
0	3372	1085.685928809925	1
0	3390	1091.083880129391	1
0	3396	1091.500945639799	2
0	3417	1097.375870991501	2
0	3420	1098.39509713324	0
0	3423	1098.681149180052	1
0	3427	1099.98843600345	1
0	3438	1102.995568419577	1
0	3449	1106.920555801713	1
0	3458	1108.50167330704	2
0	3469	1112.111978885951	0
0	3477	1114.26730270428	1
0	3482	1116.254976055935	1
0	3497	1119.965086480606	2
0	3520	1125.544797719692	2
0	3522	1126.268265042341	0
0	3537	1130.969599954088	1
0	3538	1131.457098292889	1
0	3556	1136.186818616234	2
0	3563	1138.109789876152	1
0	3576	1141.794316783549	2
0	3582	1143.746380506783	1
0	3594	1147.222912814007	0
0	3598	1147.388819130372	1
0	3614	1152.462739708835	2
0	3633	1157.49334262754	2
0	3644	1160.776682375466	1
0	3651	1162.077719047667	1
0	3653	1162.612967191385	1
0	3657	1162.797670106172	2
0	3658	1163.429929904642	0
0	3668	1167.09216171154	0
0	3670	1167.570885546161	0
0	3676	1168.520545294742	1
0	3687	1174.24698978942	1
0	3700	1179.618066284341	1
0	3722	1185.055211755914	2
0	3737	1189.499452385354	1
0	3746	1190.779760133709	2
0	3750	1192.039711003891	0
0	3767	1195.981041153894	1
0	3772	1197.532819111948	1
0	3779	1199.185141022783	0
0	3787	1201.700188310585	1
0	3796	1204.03761609411	0
0	3799	1204.457845925588	0
0	3808	1206.806605022867	1
0	3814	1210.506995186559	0
0	3821	1212.03846598696	1
0	3826	1214.233424393926	0
0	3834	1217.092022515135	1
0	3840	1218.775197372655	1
0	3853	1222.498894228134	1
0	3855	1223.428287644056	0
0	3868	1227.891743809217	1
0	3877	1230.913188658305	0
0	3881	1231.762680391315	0
0	3887	1232.973793892422	1
0	3895	1236.146749571897	0
0	3904	1238.631151614244	1
0	3905	1239.239738600909	0
0	3909	1240.49817788077	0
0	3915	1243.788375412579	1
0	3927	1249.785871977219	1
0	3933	1252.16218734486	0
0	3943	1255.425851137843	1
0	3949	1257.967591036226	0
0	3959	1261.31242707721	1
0	3974	1266.719252136071	1
0	3986	1271.2764248827	0
0	3990	1271.721541720676	1
0	3993	1272.326731028967	0
0	4000	1274.165572904168	0
0	4008	1277.665382890031	1
0	4024	1283.161263181828	1
0	4029	1284.511570093106	0
0	4033	1285.730494663702	0
0	4042	1288.297512822785	1
0	4053	1293.184383820278	0
0	4059	1294.041367256083	1
0	4075	1299.774741537171	1
0	4080	1300.916360905276	0
0	4089	1304.549494208651	0
0	4095	1305.466328605312	1
0	4111	1311.364002890187	1
0	4118	1314.076153371136	0
0	4129	1316.526086015395	1
0	4151	1321.895224331414	2
0	4154	1322.93079073902	1
0	4166	1326.063021344134	0
0	4169	1326.953799534007	0
0	4175	1327.727087568493	1
0	4185	1332.695886750008	0
0	4189	1333.207091825084	1
0	4200	1338.312197313878	0
0	4206	1338.973372614012	1
0	4218	1343.814263320993	0
0	4224	1344.924832006684	1
0	4239	1350.312290679198	1
0	4248	1352.942193683123	0
0	4250	1353.073025028572	0
0	4259	1355.584558318369	1
0	4274	1361.196106111398	1
0	4293	1366.787396569504	2
0	4297	1367.941263571615	0
0	4302	1370.198774610296	1
0	4310	1372.154208129971	1
0	4332	1377.989070255543	2
0	4333	1378.524705553659	0
0	4348	1383.267954413314	1
0	4349	1383.487493523049	0
0	4361	1388.076952295959	1
0	4365	1388.314447686077	1
0	4368	1388.959280427661	0
0	4371	1390.014949680889	0
0	4382	1393.734629668762	1
0	4397	1398.928399188911	1
0	4405	1400.935040366371	0
0	4414	1403.547081273167	0
0	4419	1404.305209748448	1
0	4420	1404.392234297354	0
0	4434	1410.240893837066	1
0	4445	1414.087720717536	0
0	4453	1415.907833568288	1
0	4456	1417.682792969981	0
0	4465	1421.040777243443	1
0	4468	1422.276708986611	0
0	4473	1424.723743583193	0
0	4478	1426.542077983033	1
0	4490	1432.456922939282	1
0	4493	1433.260989903591	0
0	4503	1438.1558133245	1
0	4518	1443.749573157171	1
0	4531	1447.690263440371	0
0	4540	1449.524288469695	1
0	4559	1454.726193321173	2
0	4573	1459.214845462704	0
0	4579	1460.118079784096	1
0	4585	1461.582789703273	0
0	4598	1466.103754764193	1
0	4602	1467.445244823003	0
0	4611	1470.730578565159	1
0	4618	1471.592270341472	1
0	4631	1475.886433664828	0
0	4637	1477.27020885167	1
0	4656	1482.378814270956	2
0	4675	1487.853243801048	2
0	4680	1489.038035862734	1
0	4692	1491.89714849403	0
0	4698	1493.646258581666	1
0	4699	1493.649547077252	0
0	4709	1496.481415434975	1
0	4720	1499.390311436498	1
0	4743	1505.297419264683	2
0	4749	1507.283961804003	1
0	4752	1507.905088785574	0
0	4762	1510.382180877266	1
0	4779	1514.896213347329	0
0	4785	1515.871284079043	1
0	4792	1518.353025444319	0
0	4799	1520.805083881252	0
0	4805	1521.865589187251	1
0	4806	1522.38209323376	0
0	4810	1523.52085080359	0
0	4816	1527.177164709897	0
0	4820	1527.611180226089	1
0	4828	1533.500876649286	1
0	4832	1536.417152017242	0
0	4837	1538.628766317622	1
0	4841	1540.276145049956	0
0	4848	1544.056318767372	1
0	4857	1549.274469960717	1
0	4872	1555.036646660421	1
0	4876	1556.24321838853	0
0	4892	1560.6522773332	1
0	4894	1560.940719520908	0
0	4914	1566.610310653228	1
0	4916	1567.706105051218	0
0	4931	1572.094174118949	1
0	4955	1577.184954991335	2
0	4963	1579.783884333217	0
0	4965	1579.81360703218	1
0	4974	1582.722424416108	1
0	4990	1587.14294342441	0
0	4996	1587.754789553586	1
0	5000	1589.135493257205	0
0	5012	1592.938570935747	0
0	5017	1593.628538587134	1
0	5026	1596.709597784331	0
0	5028	1596.822354574691	0
0	5034	1599.361404811501	1
0	5039	1603.211302346553	0
0	5045	1605.009312497455	1
0	5057	1610.696378223135	1
0	5069	1615.578985428209	0
0	5075	1616.531199427324	1
0	5084	1620.258456095707	0
0	5091	1622.460782103243	1
0	5099	1624.397062879525	0
0	5109	1628.027329228355	1
0	5125	1633.806943061065	1
0	5128	1634.540556482623	0
0	5135	1637.072425491876	0
0	5142	1639.132110089298	1
0	5156	1644.177707017401	1
0	5163	1646.299843502118	0
0	5173	1649.853962450057	1
0	5186	1653.689334575787	0
0	5193	1655.104089976523	1
0	5211	1660.313040547075	2
0	5215	1661.359466896161	0
0	5226	1665.05234227225	0
0	5231	1665.630645631116	1
0	5234	1666.684711677607	0
0	5246	1671.532543995187	1
0	5248	1672.407384881054	0
0	5259	1677.024882963861	1
0	5278	1682.763107065114	1
0	5286	1685.585472058388	1
0	5291	1686.464540968765	0
0	5300	1688.02903957153	1
0	5309	1690.755117731172	0
0	5319	1693.55343496823	1
0	5324	1695.41678888409	0
0	5338	1699.433231352365	1
0	5339	1700.486372415794	0
0	5353	1705.048657857815	1
0	5359	1706.562295482845	0
0	5366	1709.388740801837	0
0	5371	1710.385568290951	1
0	5379	1713.768366731124	0
0	5385	1715.582201247106	1
0	5400	1720.854787834457	1
0	5418	1725.747246095564	0
0	5420	1725.87974167464	0
0	5422	1726.224678766101	0
0	5426	1726.429444566139	1
0	5440	1732.315779707164	1
0	5456	1738.198705063902	1
0	5471	1742.539124123056	0
0	5477	1743.409937888386	1
0	5496	1749.064657980578	2
0	5498	1749.775560389623	0
0	5500	1750.031366596466	0
0	5510	1754.473444257632	1
0	5524	1759.844892255965	1
0	5528	1760.211784247311	1
0	5530	1760.411251807355	0
0	5545	1765.446106147489	1
0	5552	1767.653868315278	0
0	5566	1770.817602689846	1
0	5584	1776.075869266645	2
0	5585	1776.467330013171	0
0	5602	1781.64937288198	1
0	5603	1782.264419045534	0
0	5605	1782.539970513435	0
0	5610	1784.20593637857	0
0	5616	1787.548316632401	1
0	5617	1787.6644114143	1
0	5627	1792.962737674596	1
0	5642	1798.315118979899	1
0	5663	1803.952547987228	2
0	5673	1806.516867018424	0
0	5677	1806.992612164468	1
0	5680	1807.957940165425	0
0	5686	1809.072978007145	1
0	5687	1809.468720718874	0
0	5697	1814.182072368221	1
0	5712	1819.353939182827	1
0	5730	1824.3654104122	2
0	5750	1830.229451457042	2
0	5753	1831.058481365791	1
0	5759	1832.94394176768	1
0	5774	1835.847322716847	2
0	5776	1836.676786817964	0
0	5786	1840.556782333417	0
0	5790	1841.554322942397	1
0	5802	1846.160957773104	0
0	5808	1846.897516912319	1
0	5821	1852.27627170389	1
0	5834	1856.962079119634	1
0	5840	1857.667586792963	2
0	5863	1863.328043678081	2
0	5883	1868.537300388099	0
0	5888	1869.044931444809	1
0	5890	1869.641693269256	0
0	5904	1874.779368748077	1
0	5908	1875.044219235893	1
0	5932	1880.853688006293	2
0	5944	1884.008378774973	1
0	5956	1886.77382016811	2
0	5960	1887.760372243361	1
0	5962	1887.901527180923	0
0	5966	1888.90544407861	1
0	5973	1891.389874597784	0
0	5978	1891.894928232305	1
0	5981	1893.543799288459	0
0	5986	1895.706421740698	0
0	5992	1897.743289669747	1
0	6001	1902.752872620713	1
0	6014	1907.753296559913	1
0	6035	1913.582091855355	2
0	6057	1919.42540229252	2
0	6061	1920.589182220869	0
0	6074	1924.571494209817	1
0	6078	1926.10254834814	1
0	6080	1926.330530839279	1
0	6096	1930.301800322024	2
0	6097	1930.328618339384	0
0	6114	1935.568820998775	1
0	6116	1935.635629951957	0
0	6132	1941.239029443827	1
0	6134	1941.473200682438	0
0	6148	1946.777240317205	0
0	6152	1946.974469680576	1
0	6159	1950.165093376654	1
0	6168	1952.968339914926	1
0	6189	1958.269436991545	2
0	6195	1959.902603240106	0
0	6205	1963.55966787483	1
0	6206	1964.35228426522	0
0	6223	1968.696452425564	1
0	6238	1973.242294206868	0
0	6242	1973.73867448769	1
0	6247	1974.844160275305	0
0	6253	1976.756153890983	1
0	6262	1978.992595581575	1
0	6281	1984.195453088502	2
0	6289	1986.334018311817	0
0	6291	1986.843128924612	0
0	6300	1990.082458856054	1
0	6315	1995.179092225856	1
0	6336	2000.614676377275	2
0	6339	2001.090481185708	1
0	6344	2002.545310531398	1
0	6352	2004.137197939218	0
0	6354	2004.756126750615	0
0	6361	2006.506748289806	1
0	6367	2009.449913486959	0
0	6374	2012.306279325397	1
0	6380	2014.967726989071	0
0	6385	2017.868445984908	0
0	6389	2018.151004283694	1
0	6394	2022.386240706086	0
0	6399	2024.013834813615	1
0	6409	2029.31667061267	1
0	6420	2033.778905938268	0
0	6422	2033.947935526265	0
0	6427	2035.225699430802	1
0	6437	2040.501876802188	1
0	6453	2046.471325927185	1
0	6475	2052.288568186345	2
0	6491	2056.73756528716	0
0	6498	2057.751768261664	1
0	6499	2058.38850717503	1
0	6502	2058.875451617648	0
0	6516	2063.170902719027	1
0	6536	2068.636578978044	2
0	6553	2073.917582478146	2
0	6557	2074.98687767331	1
0	6559	2075.059777428051	1
0	6570	2078.969085469613	0
0	6575	2079.131959526339	1
0	6584	2081.720591836265	0
0	6598	2084.911127379868	1
0	6615	2090.177738349652	0
0	6622	2090.648814274935	1
0	6641	2095.740600598982	2
0	6646	2097.077431247226	0
0	6650	2097.709667706284	1
0	6660	2100.833079495939	1
0	6667	2102.951880599728	0
0	6673	2105.422730954371	0
0	6679	2106.12364725094	1
0	6680	2106.624305059904	0
0	6692	2111.132171747514	1
0	6707	2116.315546037869	1
0	6708	2116.677287411296	0
0	6724	2121.702863859252	1
0	6744	2127.012970549294	2
0	6753	2129.748344689266	0
0	6757	2131.505385478846	0
0	6764	2132.789884374484	1
0	6779	2138.072231404258	1
0	6780	2138.239883395151	1
0	6783	2138.789486877746	0
0	6797	2143.141616549816	1
0	6800	2143.514970155324	0
0	6816	2148.799197147841	1
0	6822	2150.511162665678	0
0	6825	2150.850361340804	0
0	6834	2154.536424355589	1
0	6838	2156.129897668033	0
0	6848	2160.522354325287	1
0	6853	2162.465545631138	0
0	6861	2165.564750273487	1
0	6868	2168.840567415821	0
0	6877	2170.736749548706	1
0	6895	2176.613000639024	1
0	6901	2178.056074541303	0
0	6916	2182.423887685182	1
0	6923	2184.49595763768	0
0	6936	2188.096523638357	1
0	6937	2188.177002629621	0
0	6946	2192.050048321959	0
0	6952	2193.239178601428	1
0	6959	2195.846068147928	0
0	6968	2198.894322216054	1
0	6969	2199.376767717192	0
0	6983	2204.765459297234	1
0	6990	2207.740291579052	0
0	6997	2209.826911930935	1
0	7005	2212.512642740748	0
0	7008	2213.355585881401	0
0	7013	2215.363416679445	1
0	7024	2221.028544956594	1
0	7039	2226.900721483872	1
0	7060	2232.814470791499	2
0	7063	2234.127197800096	1
0	7067	2234.703351162034	0
0	7076	2237.832504382831	1
0	7079	2238.818346159658	0
0	7092	2243.1034416915	1
0	7113	2248.734929661042	2
0	7126	2252.533469018185	0
0	7132	2253.842163985836	1
0	7133	2253.889893871157	1
0	7137	2254.832253952286	0
0	7152	2259.139144182446	1
0	7155	2260.108719589545	0
0	7169	2264.444278912161	1
0	7179	2267.63958830655	0
0	7187	2269.611542951556	1
0	7189	2270.475352986957	0
0	7206	2275.44923602511	1
0	7225	2280.952292677721	2
0	7243	2286.453993348645	2
0	7254	2289.433978893801	0
0	7263	2292.20495955251	1
0	7272	2294.69340417337	1
0	7287	2298.074362903375	2
0	7293	2299.714939926525	1
0	7302	2301.526995630361	0
0	7310	2303.096908975167	1
0	7325	2307.714431162931	0
0	7329	2308.222977196339	1
0	7333	2309.153685770354	0
0	7348	2313.859850959626	1
0	7365	2318.868338619602	1
0	7372	2319.842958856846	2
0	7387	2323.86073811574	0
0	7390	2324.534774737555	0
0	7393	2325.609206425148	0
0	7397	2325.759252807597	1
0	7403	2328.941487580897	1
0	7406	2329.749065107672	0
0	7412	2331.592392125406	1
0	7424	2336.937605696271	1
0	7426	2337.632395434087	0
0	7428	2338.120265038573	0
0	7435	2342.792714779039	1
0	7440	2345.495674339711	0
0	7446	2348.56252330356	1
0	7458	2353.684993580223	1
0	7467	2356.962282734815	0
0	7474	2359.520587318816	1
0	7489	2364.858586133697	1
0	7496	2366.729493292287	0
0	7498	2366.822190547019	0
0	7509	2370.621850805596	1
0	7524	2376.507345273166	1
0	7531	2378.790461744187	0
0	7546	2382.443352046895	1
0	7547	2382.601256850415	0
0	7563	2387.729933832313	1
0	7585	2392.743538820191	2
0	7586	2393.097215166437	0
0	7591	2394.015941926748	1
0	7603	2397.947186367592	1
0	7610	2399.627971825893	0
0	7621	2402.990330358507	1
0	7624	2404.232860859608	0
0	7638	2408.053835143341	1
0	7648	2411.537122121203	0
0	7657	2413.629747544188	1
0	7674	2418.744354797999	0
0	7680	2419.341968154075	1
0	7698	2424.745405996224	2
0	7712	2429.298513191061	0
0	7717	2429.987600199418	1
0	7719	2430.593591144197	0
0	7734	2435.219726794638	1
0	7737	2436.670813709503	1
0	7742	2437.551945706951	0
0	7754	2440.625446537748	1
0	7755	2440.814337864408	0
0	7758	2441.27731631918	0
0	7764	2443.463636825566	0
0	7770	2446.392218483385	1
0	7780	2452.031261636183	1
0	7798	2457.194091212709	1
0	7800	2458.323072450357	0
0	7816	2462.348136790103	1
0	7825	2465.036133686671	0
0	7835	2468.038126640028	1
0	7836	2468.374995785305	0
0	7839	2469.381138183183	0
0	7853	2474.032896930358	1
0	7862	2478.398068311165	0
0	7867	2479.28770259163	1
0	7881	2484.752185329568	1
0	7890	2487.771762102266	0
0	7898	2490.025036501937	1
0	7910	2493.006747144632	0
0	7919	2495.030525950488	1
0	7939	2500.253424565779	2
0	7961	2506.153159506159	2
0	7969	2508.443111047854	1
0	7972	2509.302373074002	1
0	7978	2510.943199372274	0
0	7983	2511.475076088455	1
0	8003	2516.614341300918	2
0	8017	2521.420751073521	1
0	8019	2521.978208324994	0
0	8025	2522.592470225418	1
0	8045	2528.077294287976	2
0	8046	2528.126899808302	0
0	8053	2530.303783675313	0
0	8061	2533.462218396604	1
0	8077	2539.195713138213	1
0	8085	2542.308986991416	0
0	8087	2542.602547880851	1
0	8096	2545.055141245719	1
0	8102	2547.115548258771	0
0	8116	2551.050060761632	1
0	8119	2552.294180831761	0
0	8136	2556.436762572737	1
0	8146	2559.992700227194	0
0	8156	2561.91588687385	1
0	8164	2563.998484644113	0
0	8174	2567.098059886839	1
0	8195	2572.915266760397	2
0	8204	2575.38984995464	1
0	8218	2578.810724282409	2
0	8224	2580.793997757143	0
0	8236	2584.263169414834	1
0	8239	2585.160673235548	0
0	8254	2589.712610799824	1
0	8262	2591.924341896553	0
0	8274	2595.079505214472	1
0	8288	2600.240653197289	1
0	8292	2600.450939910724	2
0	8293	2600.480311254159	0
0	8310	2605.638202434643	1
0	8328	2611.342205041093	2
0	8351	2617.337142186943	2
0	8361	2620.152858711087	1
0	8373	2623.15795921302	2
0	8374	2623.22184176243	1
0	8379	2624.493670540516	1
0	8391	2627.514724630753	1
0	8397	2628.291088324045	2
0	8412	2632.95479674079	0
0	8416	2633.482328600721	1
0	8428	2637.488013128986	0
0	8437	2639.369150593416	1
0	8444	2642.319619859577	1
0	8458	2645.040409976621	2
0	8462	2645.506300719344	0
0	8476	2650.709174593449	1
0	8486	2653.476838857872	0
0	8493	2655.880595467758	0
0	8497	2656.276770176603	1
0	8514	2662.269764538626	1
0	8516	2662.924935348458	1
0	8534	2667.350309116072	2
0	8541	2669.28907254851	0
0	8547	2671.03121312417	0
0	8550	2672.004119204943	0
0	8554	2672.594325719406	1
0	8567	2678.381938825133	1
0	8571	2680.820697566151	0
0	8579	2683.781330291186	1
0	8594	2689.189539734511	1
0	8613	2694.757214805115	2
0	8625	2698.653272111559	1
0	8634	2700.6138308798	2
0	8638	2701.558231970532	1
0	8640	2702.293402043992	0
0	8649	2704.125252609496	0
0	8655	2706.29224580713	1
0	8673	2712.174782973718	1
0	8694	2717.798338475874	2
0	8705	2721.234109518354	1
0	8714	2723.270505292345	2
0	8715	2723.302222905801	0
0	8727	2728.182689473967	1
0	8731	2728.756952516971	1
0	8733	2729.041154848305	1
0	8737	2730.093660927031	0
0	8747	2734.163279462725	0
0	8751	2734.699401421476	1
0	8769	2739.829680480765	1
0	8789	2745.538120558722	2
0	8806	2750.693267980129	2
0	8808	2751.062134364738	1
0	8813	2752.624517963737	0
0	8826	2756.228885174035	1
0	8835	2759.108814118673	1
0	8843	2761.125723969659	0
0	8849	2761.922432743716	1
0	8863	2765.67472263997	0
0	8872	2767.14789243625	1
0	8880	2769.037839018393	0
0	8893	2772.337851334601	1
0	8897	2773.203815882681	0
0	8899	2773.269040206569	0
0	8902	2774.683274282147	0
0	8909	2777.68377778051	1
0	8918	2782.753788175998	1
0	8927	2785.952827686797	0
0	8935	2788.582304899586	1
0	8936	2788.73087450746	0
0	8946	2793.661515956983	1
0	8960	2798.445643536635	0
0	8965	2799.387137730612	1
0	8970	2800.946036164654	0
0	8981	2805.025803425355	1
0	8997	2810.600479142513	1
0	9014	2816.265420973772	2
0	9016	2816.408326151088	0
0	9032	2821.792677797615	1
0	9043	2824.862502271896	0
0	9046	2825.690198521019	0
0	9048	2825.934631142305	1
0	9054	2827.616234829654	1
0	9058	2828.686316493205	0
0	9069	2832.968227381124	1
0	9083	2838.082708658655	1
0	9090	2839.664826194878	0
0	9097	2842.579090086167	0
0	9104	2844.019518665508	1
0	9119	2849.22501118924	1
0	9137	2854.353026860516	0
0	9142	2854.833654359686	1
0	9149	2857.482773538102	0
0	9162	2860.715326156239	1
0	9163	2861.060930149519	0
0	9167	2862.4269878252	0
0	9179	2866.618769134167	1
0	9184	2869.111463169456	0
0	9194	2872.344899110035	1
0	9201	2875.561656846902	0
0	9209	2877.614561358937	1
0	9226	2882.935307468059	1
0	9246	2888.585416817576	2
0	9250	2889.253926775889	0
0	9255	2890.94960702281	1
0	9266	2894.012303254571	1
0	9275	2896.643640813772	0
0	9286	2899.783653255789	1
0	9304	2905.213125961138	2
0	9312	2907.118125077226	0
0	9325	2910.613166946922	1
0	9333	2913.111025889525	0
0	9345	2916.550033023818	1
0	9351	2918.865748197659	1
0	9358	2921.245020350329	0
0	9364	2921.941197002777	1
0	9373	2924.640348217688	0
0	9382	2927.071570583391	1
0	9391	2930.114322652463	0
0	9400	2932.45242835931	1
0	9402	2933.164691203043	0
0	9418	2938.314612759282	1
0	9420	2938.83949290007	0
0	9437	2944.26989371493	1
0	9438	2944.682293148366	0
0	9451	2949.294904124695	1
0	9453	2949.605649041248	0
0	9468	2954.871549455919	1
0	9472	2956.330580657236	0
0	9486	2960.569772198102	1
0	9487	2960.73170273088	0
0	9489	2960.787084322894	0
0	9495	2963.879861831786	0
0	9497	2965.275683350401	0
0	9501	2965.851180134345	1
0	9508	2971.531091066547	1
0	9517	2976.955475860629	0
0	9522	2977.284436680381	1
0	9535	2983.044776487634	1
0	9549	2988.508397587812	1
0	9557	2990.470605560119	0
0	9568	2993.61546119885	1
0	9580	2997.88421518484	0
0	9588	2999.335375162777	1
0	9592	3000.676500592966	0
0	9598	3002.920628238008	0
0	9600	3003.375029490916	0
0	9605	3004.787321442742	1
0	9611	3007.652297045575	0
0	9618	3009.80359246815	1
0	9630	3015.695293754576	1
0	9631	3015.955252736926	0
0	9644	3020.99543410703	1
0	9654	3026.297510777836	0
0	9658	3026.396815986376	1
0	9674	3031.730138949355	1
0	9689	3036.76939552464	2
0	9709	3042.000317654577	2
0	9716	3043.884402547735	1
0	9722	3045.408671487244	0
0	9724	3045.994731600516	0
0	9727	3047.056869125115	1
0	9731	3047.201644478836	1
0	9741	3052.341134252964	0