version 3
run General-5-20240428-16:41:48-11295
attr configname General
attr datetime 20240428-16:41:48
attr datetimef 20240428-164148
attr experiment General
attr inifile omnetpp.ini
attr iterationvars $0=true
attr iterationvarsd true
attr iterationvarsf true-
attr measurement $0=true
attr network Supermarket
attr processid 11295
attr repetition 5
attr replication #5
attr resultdir results
attr runnumber 5
attr seedset 5
config network Supermarket
config repeat 10
config seed-set 5
config num-rngs 10
config **.use_random_strategy true

vector 0 Supermarket queueSizeOverTime:vector ETV
attr recordingmode vector
attr source updateQueue
attr title queueSizeOverTime
vector 1 Supermarket customerWaitingTime:vector ETV
attr interpolationmode none
attr recordingmode vector
attr source customerFinished
attr title "cust waiting time"
0	7	5.494601648301	1
0	9	7.79271973262	0
0	13	10.722684754757	1
0	19	15.744120985502	1
0	24	18.636955696041	0
0	27	20.071934554725	0
0	31	21.51601498574	1
0	38	27.488679674454	2
0	42	30.985060609062	1
0	44	32.492110674036	0
0	48	33.37687971862	1
0	55	38.900983219267	1
0	59	40.476171629736	0
0	65	43.953241905197	1
0	69	46.414778920705	0
0	71	47.116579832743	0
0	75	49.005983226699	1
0	82	54.937312498222	1
0	86	57.293907328158	0
0	91	60.53607767634	1
0	102	66.33279493288	2
0	115	71.55214576912	2
0	124	76.730764967621	3
0	134	82.131713847629	2
0	138	82.146969664841	1
0	153	87.871571123366	3
0	157	89.838920533772	2
0	159	90.127589870826	1
0	171	92.988150641321	1
0	187	98.209666951093	3
0	190	98.85134272999	0
0	206	103.82290451927	4
0	223	109.423256011911	5
0	231	112.58018835541	4
0	241	115.384391057536	2
0	242	115.477097346911	0
0	251	120.148344344575	1
0	255	120.559847024733	1
0	270	125.725310715612	1
0	271	126.063042011344	0
0	274	126.872962977739	3
0	291	131.575040460795	4
0	303	136.59262564359	0
0	307	136.892919197909	2
0	312	141.031401756803	3
0	315	142.206692902137	1
0	320	142.571100708095	1
0	329	145.838845479304	2
0	338	148.016900088869	1
0	359	153.338078118393	2
0	379	158.758702618068	3
0	389	162.196743565496	2
0	400	163.94795502303	3
0	409	166.577065299263	0
0	418	169.158311770762	4
0	423	170.611110158845	3
0	429	172.707225905035	1
0	434	174.03678211709	0
0	439	174.858896459219	4
0	452	180.205049992538	1
0	466	185.514078972162	5
0	485	191.473827788373	2
0	486	191.67186417675	4
0	490	192.945155332911	1
0	503	196.854553578421	2
0	517	202.070397587493	5
0	521	203.239752762255	1
0	525	204.529783213509	0
0	532	207.151657980168	1
0	540	210.419873977429	0
0	547	212.646012695972	2
0	552	215.309100333601	4
0	560	218.420274402481	1
0	577	224.266881887569	3
0	586	227.582657855936	2
0	592	229.418823272921	3
0	597	229.85255223699	2
0	607	234.149812831077	2
0	615	235.845601211303	3
0	619	237.426470238948	1
0	631	241.241225270323	3
0	649	247.060580260587	4
0	652	247.882297916686	3
0	658	249.637228042352	2
0	668	252.300490384457	4
0	669	252.342798360972	0
0	681	257.867881562096	1
0	691	261.95035762235	1
0	696	262.945455751383	5
0	700	264.583242141873	4
0	711	268.116059648221	0
0	715	268.550949102036	2
0	725	273.771545303987	1
0	732	275.735749306392	1
0	734	276.151232906731	3
0	744	279.06533139106	2
0	753	282.48835912475	0
0	756	283.254602781615	1
0	761	284.115884115921	1
0	765	286.349966106473	0
0	774	289.958606363741	1
0	790	295.280412401772	2
0	795	296.975494193147	0
0	803	300.670007174603	3
0	805	301.181916417902	2
0	808	302.673506004971	2
0	812	304.668961483285	1
0	818	306.307257385926	1
0	820	307.160926379611	0
0	833	311.794721555199	2
0	846	317.764981796035	1
0	863	323.189576931998	3
0	867	324.987788150671	0
0	874	328.910169232638	1
0	878	328.969619031764	2
0	881	331.264029613698	1
0	883	331.760882055621	2
0	892	334.936725540088	1
0	899	337.215563549545	0
0	902	337.879975496328	1
0	911	340.804759742926	1
0	913	341.816963374267	0
0	924	346.161717848853	2
0	931	349.983337638319	0
0	937	351.835608223221	1
0	943	355.081988337916	0
0	949	357.151793069905	1
0	950	358.922372344069	1
0	958	361.495024952923	0
0	963	362.656538101612	1
0	969	366.964302024571	0
0	974	367.696677935776	1
0	983	372.785900929478	2
0	996	378.48264477728	1
0	1001	380.63057076768	0
0	1004	381.967070458806	0
0	1011	384.243960778928	1
0	1021	389.638707824518	2
0	1033	394.820733100875	3
0	1035	395.950640596101	1
0	1040	398.05750540772	2
0	1043	399.610474065063	1
0	1047	399.848804700422	2
0	1050	401.974388585426	1
0	1054	404.334711203469	0
0	1059	405.223981000018	2
0	1067	410.678575969767	1
0	1077	415.918848606292	3
0	1088	421.454812240554	4
0	1100	426.88981581456	1
0	1107	430.694271230371	0
0	1113	432.258650540141	5
0	1116	433.597939300817	4
0	1125	437.374956208048	2
0	1126	437.5303018298	3
0	1138	442.922760667977	1
0	1139	443.236309249071	1
0	1151	448.166408394697	2
0	1155	448.276825055712	3
0	1156	448.317794598173	0
0	1159	449.20337064087	2
0	1161	449.885733140167	0
0	1168	453.614688943838	1
0	1180	458.719041753792	1
0	1192	463.632849463729	1
0	1198	464.592899260576	1
0	1210	468.608807173092	0
0	1217	470.315033838851	2
0	1229	474.557482702656	0
0	1232	475.690010076507	0
0	1236	475.893609774531	1
0	1247	481.356218012747	2
0	1256	485.484102773247	1
0	1262	486.729921749093	1
0	1272	491.09264021006	1
0	1278	492.00877877022	1
0	1296	497.148198861627	2
0	1301	498.914536663447	0
0	1307	500.484507402054	0
0	1315	503.053597729651	3
0	1319	505.391299986627	2
0	1330	508.805802301036	2
0	1334	512.132824279251	1
0	1341	514.479627597144	1
0	1357	520.412178986704	2
0	1373	525.670439863808	2
0	1375	526.836128562919	1
0	1392	531.523498610125	3
0	1406	537.255883450151	2
0	1408	537.491346129331	2
0	1413	539.48825749161	1
0	1417	541.064860348124	1
0	1424	542.696836238025	1
0	1429	544.315853683041	0
0	1435	546.541468637295	1
0	1437	546.589807234586	0
0	1443	548.627043012992	1
0	1448	551.016713874412	0
0	1456	554.038156214167	2
0	1468	559.367875967637	2
0	1470	560.88134511176	1
0	1474	562.52417058637	1
0	1482	564.969128982161	2
0	1488	568.3835831281	0
0	1493	570.078510807358	1
0	1503	575.692865979621	1
0	1515	580.127243949213	0
0	1519	580.937801376913	3
0	1527	585.853631458829	2
0	1532	586.247618486403	1
0	1547	591.580301810984	1
0	1552	592.985574543122	0
0	1566	596.788968632227	1
0	1567	596.874437449612	0
0	1584	601.970798979975	2
0	1597	606.979515553914	1
0	1602	607.624579082239	3
0	1604	607.985412032926	2
0	1618	613.024905583119	3
0	1626	615.764023335066	0
0	1635	618.831668975759	1
0	1640	621.086776089622	2
0	1642	621.406168102284	0
0	1651	624.475949313953	1
0	1669	630.425232151053	2
0	1674	631.647395869717	1
0	1686	635.527420934518	3
0	1693	637.744673311241	0
0	1696	639.534786434956	2
0	1703	641.351748932381	1
0	1704	641.556087257223	0
0	1711	646.092040265789	1
0	1715	646.640585143114	1
0	1716	647.385521214683	0
0	1727	651.989394964412	1
0	1729	652.225757275819	0
0	1741	657.09453835268	2
0	1754	662.95315490127	1
0	1772	668.896450467635	2
0	1777	670.65649813762	1
0	1791	674.83870656066	2
0	1802	679.495124294419	1
0	1809	680.784735611634	3
0	1817	683.617597264932	0
0	1825	686.422999882599	4
0	1835	691.495689433993	2
0	1847	696.625068133691	1
0	1854	699.835781515799	3
0	1857	700.047051534751	1
0	1865	702.039858665311	2
0	1875	706.301594064213	2
0	1882	707.631699621205	3
0	1886	709.056244521979	0
0	1890	709.833116715882	2
0	1897	712.865028971799	3
0	1910	718.420923837686	3
0	1916	723.465393389218	2
0	1921	723.662749015952	1
0	1923	725.275592649697	1
0	1936	729.317504590836	1
0	1940	730.319571132531	0
0	1944	731.212577643683	2
0	1953	733.913862941896	0
0	1957	734.594357468414	2
0	1969	740.111284349806	1
0	1970	740.350750785898	1
0	1985	745.391737914172	2
0	1995	749.131720767118	0
0	2003	751.143443144851	1
0	2016	755.655513965287	1
0	2022	756.684816315763	3
0	2024	756.775229575803	2
0	2032	760.42240595421	1
0	2040	761.81210993509	1
0	2051	764.397593912545	0
0	2061	767.011365349164	2
0	2067	769.54416801547	1
0	2078	772.700516026925	2
0	2091	778.013120351119	1
0	2097	779.768457248918	0
0	2103	781.314034890376	0
0	2112	783.89358484721	1
0	2125	789.083373411784	3
0	2130	790.88238071987	0
0	2139	794.292428045526	4
0	2141	795.889938738076	3
0	2151	799.921177202362	1
0	2163	805.327124011578	0
0	2167	805.792871495934	1
0	2175	809.00303848192	2
0	2185	811.766355783205	2
0	2188	812.700744320165	0
0	2199	817.178283769397	3
0	2210	822.649750175878	1
0	2216	825.755665007042	2
0	2220	826.456296744748	1
0	2228	828.414126382202	1
0	2239	832.039544120307	0
0	2246	833.730887908714	2
0	2263	839.347180965116	3
0	2270	841.855324763098	0
0	2272	842.220922412344	2
0	2279	844.750583414213	1
0	2295	849.951203943921	1
0	2297	850.673005444571	0
0	2303	852.812398989792	1
0	2312	855.401006472289	2
0	2320	858.635348872738	1
0	2323	859.186705743419	0
0	2329	860.894409328924	2
0	2342	866.696410967495	1
0	2349	869.489393309101	1
0	2358	871.900150747496	1
0	2363	873.539360973628	1
0	2371	875.529572191873	0
0	2379	877.157000371713	1
0	2392	880.894347661167	0
0	2397	882.870740418201	0
0	2401	882.882607960833	2
0	2402	883.825229092261	1
0	2411	888.31710135284	1
0	2425	894.141261465839	1
0	2447	899.786449041442	2
0	2456	902.356901155778	0
0	2461	903.527191767462	0
0	2467	905.696148342677	2
0	2479	911.426454333114	3
0	2480	911.586386419825	2
0	2492	916.477416655971	1
0	2502	921.06958599213	0
0	2505	921.858710887832	1
0	2510	922.447931767199	1
0	2521	926.724334457065	1
0	2525	927.704667414995	2
0	2532	929.979264772487	0
0	2543	933.626743665887	1
0	2552	937.523818043981	1
0	2556	938.557611560904	0
0	2561	939.281487041609	2
0	2568	943.471217686417	1
0	2573	944.712251227805	1
0	2578	945.980803741132	0
0	2584	948.478049434129	0
0	2590	950.319981337515	2
0	2598	956.241409785104	1
0	2609	961.475156768448	3
0	2623	967.394482806315	1
0	2639	973.37308909906	2
0	2642	974.32125077803	2
0	2649	976.455869068497	1
0	2657	979.217651471253	3
0	2658	979.524750095198	0
0	2672	984.857106065135	2
0	2673	985.033373061091	1
0	2684	990.364150457074	1
0	2685	990.378508255223	2
0	2701	995.982051759948	2
0	2716	1001.096233437759	3
0	2731	1006.761281726872	4
0	2743	1012.004005755987	3
0	2748	1012.303102100491	3
0	2756	1014.770730348994	0
0	2762	1017.646756948076	2
0	2767	1018.163352813795	3
0	2769	1019.839581345082	2
0	2777	1023.297639479618	3
0	2789	1029.15363640733	1
0	2803	1034.335729545671	4
0	2818	1039.463117662807	2
0	2820	1039.860560207151	3
0	2837	1045.441493542156	4
0	2846	1048.390957031384	2
0	2855	1051.164480317839	3
0	2872	1056.962735370489	5
0	2875	1057.396728299665	1
0	2880	1058.749407735525	4
0	2885	1060.5989179036	3
0	2889	1062.004790942639	2
0	2893	1062.049389260344	3
0	2910	1067.53584431716	4
0	2923	1073.254747836484	2
0	2927	1073.326401920977	5
0	2936	1076.927548434693	0
0	2939	1078.314132824762	4
0	2945	1079.213124867749	1
0	2962	1085.20381203991	5
0	2977	1090.685345412452	6
0	2993	1095.750978221638	1
0	2996	1097.113554347761	0
0	3010	1100.770106620841	2
0	3019	1103.542442586727	1
0	3021	1104.364221942479	1
0	3028	1105.883364822004	2
0	3030	1106.604668168222	5
0	3047	1111.610482905746	6
0	3060	1116.903443877573	1
0	3082	1122.403413675946	7
0	3088	1123.952180705138	1
0	3093	1125.553966508468	0
0	3103	1127.758656327833	2
0	3110	1130.723918234098	0
0	3118	1133.746926152833	1
0	3124	1135.864110709155	0
0	3130	1138.700832861113	6
0	3134	1139.326662947411	1
0	3135	1139.443385801615	1
0	3149	1144.508056592416	2
0	3153	1146.31385545792	5
0	3159	1148.72942018554	4
0	3166	1150.071171804784	2
0	3176	1154.970953347614	1
0	3181	1155.893736237414	5
0	3186	1157.624875588445	0
0	3195	1161.720295690918	1
0	3202	1164.605919912793	0
0	3207	1166.352226854754	1
0	3211	1167.27248580217	6
0	3223	1172.537718864378	1
0	3226	1173.468114314123	5
0	3239	1177.990795179258	1
0	3259	1183.665948208176	2
0	3266	1185.590534456412	0
0	3280	1189.618160477594	6
0	3286	1192.121561877651	5
0	3295	1194.960826473764	6
0	3305	1198.831956945697	0
0	3311	1200.038453506294	3
0	3321	1205.228778065403	1
0	3322	1206.04924722166	2
0	3337	1210.315998941648	1
0	3351	1214.712170552216	5
0	3358	1215.911240718781	2
0	3364	1217.930989716889	1
0	3378	1221.502608402852	4
0	3382	1221.835147451597	5
0	3397	1226.613455286471	0
0	3403	1226.96142136607	2
0	3412	1231.447422458311	1
0	3419	1232.342972650879	2
0	3422	1232.781504914966	4
0	3427	1235.254240347528	1
0	3439	1238.329841233545	5
0	3449	1242.484002087833	4
0	3454	1243.491467498696	1
0	3465	1247.164195908452	3
0	3470	1248.286056805973	0
0	3474	1248.753780431334	1
0	3478	1250.288368166526	1
0	3495	1254.209797081292	2
0	3501	1256.356690695845	2
0	3506	1257.958101412964	1
0	3513	1259.400343616015	2
0	3532	1264.680279211129	3
0	3554	1270.320388938288	2
0	3562	1272.646390591501	0
0	3576	1275.943734928488	1
0	3577	1277.095603234237	2
0	3581	1277.355793045936	1
0	3596	1281.17514792945	3
0	3598	1281.980812866229	2
0	3602	1282.979370048258	1
0	3618	1287.142905314907	3
0	3639	1293.130078212812	2
0	3641	1293.685253683115	0
0	3656	1299.113661322731	3
0	3669	1304.264165936724	2
0	3671	1304.265314499831	2
0	3675	1305.067099013121	1
0	3677	1305.978887567862	1
0	3681	1306.889747085382	0
0	3694	1310.576076698245	1
0	3704	1313.94091437302	0
0	3708	1314.28732274716	0
0	3711	1315.437630975142	0
0	3715	1315.961148908816	1
0	3727	1321.255359824735	2
0	3732	1324.614654925521	1
0	3739	1326.479336987005	1
0	3755	1331.730135679699	1
0	3763	1335.143603021148	0
0	3774	1337.083130453469	1
0	3778	1338.304148622892	0
0	3783	1339.933616615586	0
0	3786	1340.490361635442	1
0	3793	1342.584349774046	2
0	3804	1347.74985100095	1
0	3810	1350.707833797659	1
0	3821	1353.675290789444	2
0	3836	1359.064723270468	1
0	3837	1359.149648327484	0
0	3845	1362.962831166677	1
0	3853	1364.606729617098	2
0	3859	1366.766527006158	0
0	3870	1370.424550434563	2
0	3881	1376.183330710966	1
0	3893	1381.405030504438	1
0	3898	1382.020220066177	1
0	3913	1385.98611838381	1
0	3920	1387.027807028488	2
0	3922	1387.553015625323	1
0	3940	1392.559434670246	2
0	3954	1397.016347713058	0
0	3959	1397.716689556128	3
0	3974	1402.977659538145	1
0	3980	1404.449674349148	0
0	3982	1404.506849365761	2
0	3987	1405.621007727676	0
0	3993	1408.333950839693	3
0	4001	1412.764992513913	2
0	4005	1413.453074776557	1
0	4021	1418.559695756285	1
0	4042	1424.206226208237	2
0	4044	1424.413486185007	0
0	4058	1429.568906989404	3
0	4060	1429.619030664081	2
0	4065	1431.160896251781	1
0	4072	1433.662532732812	0
0	4078	1434.571516275628	1
0	4080	1435.781480094871	0
0	4091	1439.637330365124	3
0	4093	1440.520426635386	0
0	4100	1445.131004969113	1
0	4111	1451.050464095537	2
0	4114	1453.239089201191	2
0	4122	1456.695016432543	3
0	4125	1458.334881544449	2
0	4137	1462.692354568503	1
0	4138	1463.129666228764	1
0	4149	1467.513001029952	0
0	4154	1468.059601505975	1
0	4166	1473.715334807279	2
0	4174	1476.279210854428	1
0	4187	1479.707586929191	2
0	4192	1482.302631398419	1
0	4205	1485.358525208652	3
0	4218	1490.540567323089	4
0	4220	1490.891670222268	0
0	4225	1492.731205498783	3
0	4234	1496.198936013261	2
0	4247	1501.572617398331	1
0	4251	1503.358048133191	1
0	4258	1505.866154010042	2
0	4265	1506.895807882294	2
0	4277	1511.451278659852	1
0	4283	1512.174829487678	2
0	4298	1517.853480575595	1
0	4305	1520.152613991044	1
0	4312	1521.950996652584	0
0	4318	1523.091978860775	3
0	4320	1523.166044008553	2
0	4327	1525.562193902081	0
0	4338	1528.869497438416	1
0	4348	1533.293448586467	1
0	4354	1534.231226711989	2
0	4362	1537.435318226449	0
0	4369	1540.151994930104	1
0	4375	1541.839750297937	0
0	4386	1545.680641837175	3
0	4396	1550.703248690338	4
0	4398	1551.633991177881	0
0	4404	1556.625330033003	1
0	4412	1561.003457715601	3
0	4416	1561.627707557044	1
0	4430	1566.655365295931	4
0	4442	1570.893962220736	3
0	4449	1572.301828879387	4
0	4455	1575.285039221043	0
0	4457	1575.658337953025	0
0	4463	1577.793620031317	1
0	4475	1583.72261313185	1
0	4490	1589.279619171507	2
0	4492	1590.051508727008	0
0	4504	1594.650198220265	1
0	4517	1600.24014940565	3
0	4522	1600.347992793414	3
0	4535	1605.432207426745	1
0	4537	1606.125741087589	2
0	4548	1609.206964491391	1
0	4557	1610.979401122769	4
0	4574	1616.303870128458	2
0	4593	1621.58390193548	2
0	4597	1622.602019104156	3
0	4611	1626.600325859375	0
0	4615	1627.446187450075	3
0	4619	1629.391566280845	2
0	4632	1632.695482171131	4
0	4640	1636.732405292445	1
0	4647	1638.173961931131	2
0	4658	1643.228013206033	1
0	4662	1643.494841624973	3
0	4664	1643.813968188116	2
0	4670	1645.687329239077	3
0	4680	1649.437327113226	4
0	4697	1655.197060063472	2
0	4704	1658.053915671067	1
0	4714	1660.989387231404	1
0	4723	1663.557191171904	1
0	4736	1666.404865522394	2
0	4737	1666.816365013941	0
0	4754	1671.581039523231	3
0	4769	1677.20172541122	2
0	4774	1679.085208466724	3
0	4784	1682.227081872514	3
0	4792	1684.208150853859	2
0	4804	1687.65724774356	3
0	4806	1687.904612210453	2
0	4809	1689.207798933251	2
0	4820	1692.950530805383	4
0	4821	1693.303475722776	1
0	4841	1698.884597421382	2
0	4851	1703.649840553157	3
0	4855	1704.030769867115	4
0	4860	1706.575361892336	1
0	4868	1709.16949703916	3
0	4880	1712.761114566692	2
0	4884	1713.542956523935	1
0	4889	1714.281748589818	2
0	4890	1714.698132984445	0
0	4901	1719.869299801989	3
0	4912	1725.589462044407	4
0	4914	1726.1490952334	3
0	4920	1730.007606439042	3
0	4927	1731.443826153167	4
0	4939	1736.656951652598	4
0	4941	1737.477688992383	3
0	4950	1742.146819939595	5
0	4955	1744.474936160245	2
0	4959	1746.857266356454	4
0	4964	1747.714783453141	1
0	4973	1751.46455211436	0
0	4979	1753.513087217687	1
0	4983	1755.583719023373	1
0	4985	1755.587475801453	3
0	4991	1758.073401346903	2
0	4998	1759.401175441444	3
0	5007	1762.993272836071	2
0	5015	1765.022383525958	2
0	5030	1770.995607309965	2
0	5038	1773.560296830124	1
0	5049	1776.683447055276	3
0	5065	1782.231378495218	2
0	5074	1786.241254114886	1
0	5077	1787.16823843504	2
0	5081	1787.455612558629	3
0	5098	1793.066969122961	1
0	5106	1795.05147905437	2
0	5113	1796.525255026163	1
0	5125	1798.894890871588	2
0	5129	1799.824940791225	1
0	5146	1803.947724214746	2
0	5164	1809.035963454508	2
0	5170	1810.228154527589	1
0	5176	1811.455994891809	1
0	5178	1811.50035603355	1
0	5189	1814.432099566786	2
0	5208	1819.390567806187	1
0	5212	1819.606740787384	2
0	5235	1825.213099841718	2
0	5237	1825.294643072517	0
0	5255	1830.605703661908	3
0	5260	1832.109253629218	1
0	5275	1836.383833926861	2
0	5283	1839.695380287112	2
0	5290	1841.575365266754	3
0	5306	1847.122200411497	1
0	5310	1847.166783012907	2
0	5313	1848.477186503462	1
0	5326	1852.385590913464	2
0	5337	1856.951163264207	2
0	5343	1858.009407927972	2
0	5357	1863.13666800106	3
0	5368	1867.58463939406	1
0	5373	1868.778798835576	2
0	5389	1874.688404866718	1
0	5408	1880.089300707439	3
0	5414	1881.89092866377	1
0	5431	1886.05002662329	4
0	5433	1886.697124625772	3
0	5438	1887.776615484027	0
0	5448	1891.843556391293	2
0	5452	1891.979113041414	3
0	5467	1897.328022807594	4
0	5469	1898.144492713259	0
0	5480	1902.678393212603	5
0	5485	1905.668097752131	2
0	5492	1908.000919521544	1
0	5498	1911.287567588369	4
0	5505	1913.053022295926	3
0	5521	1918.321020905385	2
0	5536	1923.919141815035	5
0	5544	1925.506797270718	2
0	5548	1926.647537829462	1
0	5555	1928.662505736793	4
0	5561	1929.639438969074	3
0	5577	1935.602262272723	4
0	5580	1936.58514094549	3
0	5593	1940.769345009224	2
0	5611	1946.524028645819	1
0	5631	1952.068920371579	3
0	5635	1952.828271041033	2
0	5639	1953.940544930388	3
0	5655	1957.774094027458	2
0	5656	1957.816855315221	2
0	5676	1962.813161334479	4
0	5684	1964.981568517504	1
0	5699	1968.382705189278	3
0	5716	1972.7292638329	1
0	5725	1974.144454391896	4
0	5743	1980.023994873966	5
0	5749	1981.872651787227	3
0	5755	1983.493887826669	4
0	5761	1984.898621849473	0
0	5769	1985.993249675947	4
0	5786	1991.669134231274	1
0	5794	1994.595971781863	3
0	5806	1996.793889727666	5
0	5813	1999.305587192757	0
0	5817	1999.831967974184	4
0	5828	2002.705255896308	5
0	5842	2008.40474598551	0
0	5846	2008.412482139877	4
0	5857	2013.496646355827	1
0	5858	2014.668987785568	4
0	5866	2017.774010030307	3
0	5868	2017.794901924314	0
0	5875	2019.0561468501	1
0	5891	2024.48739897156	4
0	5904	2029.362831897673	0
0	5909	2029.983065872442	5
0	5915	2033.300804512559	4
0	5923	2035.858332354797	1
0	5939	2041.472662671225	1
0	5956	2046.812336601655	3
0	5960	2047.007500329276	2
0	5978	2052.264162282564	0
0	5983	2052.360544446146	4
0	5992	2055.951177432883	3
0	6002	2058.081025307987	1
0	6025	2064.046123818018	5
0	6026	2064.61244421067	0
0	6029	2064.925878433616	1
0	6044	2069.817133757042	2
0	6047	2070.560535334733	2
0	6050	2071.462699042739	4
0	6054	2072.899992784358	3
0	6063	2075.141634636548	3
0	6064	2075.486065883644	1
0	6072	2078.147090402304	0
0	6080	2080.244958701999	1
0	6081	2080.283002016466	2
0	6096	2085.6903284341	3
0	6098	2086.257574434848	0
0	6110	2091.231643105382	4
0	6120	2096.555378835406	1
0	6135	2102.142449923782	2
0	6146	2106.232852866744	2
0	6153	2107.398754093787	5
0	6156	2108.532297371284	4
0	6167	2112.311081861242	3
0	6171	2112.544008683637	1
0	6180	2115.419227565858	1
0	6192	2117.925310719749	3
0	6195	2119.099380233894	0
0	6210	2123.260219375128	1
0	6218	2126.550010420606	2
0	6230	2129.198217472751	3
0	6248	2134.779953141921	2
0	6260	2137.865577118219	2
0	6267	2139.443243524284	1
0	6272	2140.113313685396	2
0	6293	2145.563691937822	2
0	6302	2147.661846954123	1
0	6313	2150.721025376572	4
0	6322	2153.287770589453	1
0	6337	2156.355057362691	2
0	6340	2157.029843162503	1
0	6347	2159.256203062705	3
0	6359	2161.974056843659	2
0	6380	2167.595623875959	4
0	6386	2169.29255492611	1
0	6399	2172.71372243505	5
0	6420	2178.292659383491	2
0	6424	2179.4068193191	0
0	6426	2180.07869213679	1
0	6431	2181.229146496499	1
0	6439	2183.682849857249	2
0	6454	2189.350332178167	3
0	6463	2193.204930036085	4
0	6465	2193.501698142026	2
0	6471	2194.38517576106	1
0	6491	2199.596998216343	3
0	6502	2203.69308266916	0
0	6509	2205.570998183909	2
0	6512	2206.434200837152	2
0	6525	2210.602557916884	1
0	6533	2212.400109208996	1
0	6536	2213.21056120807	1
0	6548	2215.926330748238	2
0	6554	2217.357808115768	0
0	6558	2218.067524760837	1
0	6568	2221.209524980737	2
0	6573	2222.621239422345	3
0	6587	2226.93632990866	4
0	6601	2232.002705549579	1
0	6602	2232.589589307428	0
0	6620	2237.868832861762	3
0	6621	2238.623638050506	2
0	6635	2243.24510142276	3
0	6653	2248.924238332072	1
0	6665	2252.538566071416	3
0	6675	2254.49782963329	4
0	6696	2260.038832803015	5
0	6702	2261.770777924908	0
0	6707	2262.642349620341	4
0	6718	2265.913173833853	1
0	6737	2271.607185960506	5
0	6743	2273.337858073984	0
0	6745	2273.506850875438	4
0	6749	2274.720259571207	2
0	6758	2276.772598551578	2
0	6771	2281.688990712506	1
0	6776	2282.051557074526	1
0	6797	2287.116526492864	3
0	6817	2292.630236922404	3
0	6821	2293.108833397266	4
0	6835	2298.10306736244	3
0	6841	2298.915050104952	4
0	6853	2302.63187400018	0
0	6864	2304.800458527396	2
0	6870	2306.789615269741	3
0	6872	2307.924006571516	2
0	6880	2310.128502527245	3
0	6890	2313.227044022517	1
0	6897	2315.552389952347	2
0	6904	2318.290352351256	2
0	6914	2320.650413289193	3
0	6925	2326.23152584733	1
0	6929	2326.304868399857	2
0	6930	2326.404154151549	2
0	6946	2331.80419390578	3
0	6951	2333.532722905735	2
0	6956	2335.465252606422	1
0	6964	2337.643065293545	2
0	6971	2339.809658757051	2
0	6974	2340.238926312877	1
0	6984	2343.340313231332	3
0	7000	2348.739853741361	3
0	7017	2354.224102136672	4
0	7021	2355.997718959221	2
0	7032	2359.919492299894	3
0	7047	2365.513431369087	1
0	7053	2367.01881957682	3
0	7055	2367.248165982767	0
0	7060	2368.99398636107	2
0	7065	2370.515414354151	2
0	7083	2376.480854482382	1
0	7090	2378.829367313059	2
0	7106	2382.453303578069	3
0	7114	2385.226740312406	1
0	7124	2387.6313789708	2
0	7144	2392.731986448975	1
0	7149	2393.323305526508	2
0	7152	2393.629931577008	1
0	7161	2395.903623522485	0
0	7167	2398.328370352615	2
0	7171	2398.547287366113	2
0	7175	2400.010958421384	1
0	7183	2402.83563613425	1
0	7191	2404.064835037563	2
0	7205	2409.212883405846	3
0	7220	2414.406383784361	2
0	7224	2414.747121931047	3
0	7225	2415.014313534826	1
0	7242	2420.511788425029	4
0	7247	2422.178118157657	0
0	7254	2425.206725783056	0
0	7259	2426.111422344337	1
0	7269	2431.133697834325	2
0	7275	2435.362087086766	3
0	7281	2436.677486967987	4
0	7291	2442.602017467369	3
0	7299	2447.962151223089	2
0	7301	2448.216904215041	3
0	7305	2448.395667661207	1
0	7313	2451.858835306011	0
0	7320	2454.067325244185	1
0	7322	2454.503121882088	1
0	7336	2459.255363106721	2
0	7353	2465.230748627794	2
0	7368	2470.596834979712	1
0	7373	2472.044671477278	2
0	7383	2475.42449197708	1
0	7391	2476.340911852888	2
0	7394	2477.01324826199	0
0	7403	2480.494062115432	1
0	7411	2481.905267670977	3
0	7412	2481.958605502725	2
0	7415	2482.748850441296	1
0	7429	2487.71857869834	2
0	7445	2493.238283198088	2
0	7450	2494.643562726086	1
0	7463	2498.809444329695	1
0	7467	2499.977161742739	0
0	7471	2501.643025390914	0
0	7478	2503.863755707623	1
0	7492	2509.34424034878	1
0	7494	2510.40851024363	1
0	7498	2510.999638315983	0
0	7504	2512.639634263345	1
0	7509	2513.948854093665	0
0	7513	2515.062656516669	2
0	7525	2520.633870202809	1
0	7527	2520.940349114703	0
0	7537	2526.048875614995	1
0	7552	2531.076824705344	2
0	7567	2536.583853000304	3
0	7571	2537.650138322256	1
0	7586	2542.055398976192	1
0	7604	2547.498008648161	4
0	7606	2548.701147429638	0
0	7612	2550.416587629114	0
0	7620	2552.622793326615	1
0	7626	2555.168577023543	3
0	7636	2558.250601566159	4
0	7639	2559.599906370737	0
0	7643	2561.089039049338	3
0	7650	2564.247693920038	2
0	7656	2567.495878402255	1
0	7662	2569.382271941514	2
0	7666	2570.284909327276	1
0	7671	2573.197285195691	2
0	7678	2574.778103746935	3
0	7687	2579.482300955798	0
0	7691	2580.4484255081	1
0	7706	2586.324604277029	4
0	7718	2591.511176660187	5
0	7727	2596.744263367723	1
0	7734	2599.076638059919	0
0	7743	2601.968818819379	6
0	7744	2602.107552255615	5
0	7751	2605.828089194602	0
0	7757	2607.29798278119	6
0	7758	2608.899335567835	5
0	7765	2613.24824808491	6
0	7773	2618.964602510441	1
0	7782	2624.096475542053	1
0	7800	2629.51626213104	7
0	7815	2635.273086167867	2
0	7826	2639.366429618205	6
0	7832	2640.452321622981	7
0	7838	2642.898873036957	1
0	7845	2645.169024381433	0
0	7850	2646.064849195764	1
0	7868	2651.56983051239	8
0	7878	2656.035281482032	7
0	7885	2657.010895198439	2
0	7893	2660.389958409006	6
0	7901	2662.529051726912	2
0	7918	2667.738024613582	1
0	7930	2671.102894522826	5
0	7934	2672.161789510276	0
0	7936	2672.170209025261	1
0	7939	2672.971861956984	4
0	7944	2673.220570661122	2
0	7954	2676.725341846463	1
0	7962	2678.82207957189	2
0	7970	2681.278742937365	3
0	7982	2684.742035542144	1
0	7989	2686.998257692316	1
0	7995	2688.109751475505	1
0	8005	2690.444616179908	2
0	8014	2692.991394293954	2
0	8028	2695.988304380089	2
0	8044	2701.017837225687	3
0	8054	2704.237775356272	0
0	8057	2704.506071915263	1
0	8065	2706.868475863006	4
0	8068	2708.558643542689	1
0	8074	2709.846671432833	3
0	8082	2712.025788367953	2
0	8097	2717.828364131501	2
0	8111	2722.988210046427	1
0	8115	2723.565703388531	1
0	8138	2729.559648664663	4
0	8139	2729.568683547308	1
0	8162	2735.517496223556	2
0	8164	2736.150538691895	3
0	8174	2738.595450171377	1
0	8184	2740.949889015168	2
0	8202	2746.477301764294	0
0	8207	2746.782822638512	3
0	8208	2746.925340866319	0
0	8210	2747.265512744307	2
0	8221	2751.915727978101	4
0	8223	2752.193657437449	1
0	8236	2757.454242571717	2
0	8246	2762.973240426037	1
0	8257	2768.017175817856	1
0	8263	2769.489615734078	1
0	8267	2771.060158377857	0
0	8273	2772.959111201452	3
0	8277	2773.085416133044	1
0	8288	2776.650224896024	0
0	8291	2777.082011729936	2
0	8296	2778.922289329226	0
0	8300	2779.047534544714	1
0	8304	2780.181811510112	0
0	8315	2784.182675426122	1
0	8316	2784.407144500519	0
0	8325	2788.376749788867	1
0	8329	2789.646938875079	2
0	8332	2790.715501810763	0
0	8340	2795.620668209851	1
0	8350	2800.733947678929	1
0	8357	2803.694794324919	1
0	8366	2806.250384064152	0
0	8370	2806.579388161417	1
0	8387	2811.744510617101	2
0	8401	2816.991549398045	3
0	8415	2822.181030963075	0
0	8419	2822.433116765919	1
0	8424	2824.802213405485	0
0	8426	2825.068692970783	2
0	8433	2827.499424473609	1
0	8439	2829.998872153687	0
0	8449	2833.3656395683	2
0	8461	2838.66492613544	3
0	8466	2842.54746381472	1
0	8473	2844.313981672044	2
0	8486	2849.569273270893	4
0	8497	2854.667690138792	1
0	8499	2855.423617681366	3
0	8513	2860.314619980979	2
0	8515	2860.953536341657	1
0	8531	2866.201871374849	4
0	8532	2866.621695149333	0
0	8538	2869.696882605196	1
0	8545	2871.311857139686	1
0	8555	2876.2158956587	3
0	8560	2876.448171599762	2
0	8570	2880.706463114585	0
0	8576	2881.543759899673	1
0	8578	2883.166124414295	2
0	8587	2886.469221227095	1
0	8591	2886.571200045052	2
0	8606	2891.870704819442	1
0	8610	2893.713978890903	0
0	8623	2897.395683050615	3
0	8631	2900.796370923859	2
0	8634	2901.591664769332	0
0	8640	2903.300364245887	1
0	8656	2908.830068784759	3
0	8673	2914.654261198586	1
0	8674	2914.661242367691	2
0	8677	2915.258306788038	1
0	8693	2919.815673839526	2
0	8710	2925.003507572915	1
0	8716	2925.653807985589	2
0	8737	2930.972973339485	2
0	8740	2931.881758654252	1
0	8753	2936.08447041874	1
0	8757	2936.161333268035	2
0	8759	2936.853605511823	1
0	8782	2941.712355214862	2
0	8787	2943.44474405096	0
0	8789	2943.718992646776	0
0	8792	2944.636150603061	1
0	8797	2947.216282713337	1
0	8801	2947.376830457935	2
0	8813	2953.241514538174	3
0	8816	2954.231369020993	0
0	8823	2958.838688791489	1
0	8834	2964.360852743491	1
0	8835	2964.937951112857	0
0	8838	2965.650765074762	2
0	8840	2966.868456979744	1
0	8845	2969.017573572338	0
0	8850	2970.298208662766	1
0	8853	2971.597303944985	0
0	8860	2975.530384375938	1
0	8872	2981.006743074852	1
0	8886	2986.085339371107	1
0	8887	2986.107576150322	0
0	8903	2991.329907539991	1
0	8914	2994.343803685383	0
0	8922	2996.5823106456	2
0	8927	2998.29486523207	1
0	8941	3002.211545555611	2
0	8943	3002.822076683158	0
0	8946	3004.087433563071	1
0	8954	3007.247076479942	1
0	8957	3008.534934470073	0
0	8969	3012.573290018123	1
0	8984	3017.638405454453	0
0	8989	3017.669269563388	2
0	8991	3018.519316440788	1
0	8997	3020.964285868677	0
0	9002	3022.833023511097	1
0	9013	3028.423533680141	1
0	9025	3032.990013042804	0
0	9030	3034.033132930277	1
0	9032	3035.500783947169	0
0	9042	3039.153305935664	1
0	9058	3044.437006692393	1
0	9077	3049.974334165678	2