version 3
run General-8-20240428-16:41:48-11298
attr configname General
attr datetime 20240428-16:41:48
attr datetimef 20240428-164148
attr experiment General
attr inifile omnetpp.ini
attr iterationvars $0=true
attr iterationvarsd true
attr iterationvarsf true-
attr measurement $0=true
attr network Supermarket
attr processid 11298
attr repetition 8
attr replication #8
attr resultdir results
attr runnumber 8
attr seedset 8
config network Supermarket
config repeat 10
config seed-set 8
config num-rngs 10
config **.use_random_strategy true

vector 0 Supermarket queueSizeOverTime:vector ETV
attr recordingmode vector
attr source updateQueue
attr title queueSizeOverTime
vector 1 Supermarket customerWaitingTime:vector ETV
attr interpolationmode none
attr recordingmode vector
attr source customerFinished
attr title "cust waiting time"
0	7	5.521915714955	1
0	13	11.051358074416	1
0	25	16.736508277478	1
0	27	17.897900200449	0
0	37	22.085016230122	1
0	45	25.897650343599	0
0	52	27.457953016973	1
0	69	33.053810753162	1
0	90	38.584963666742	2
0	91	39.020677830443	1
0	109	43.7096728466	0
0	114	44.292438916165	1
0	133	49.978949907004	2
0	137	51.299795874978	0
0	153	55.894723377424	2
0	154	56.234570135829	1
0	163	59.523123348715	0
0	169	61.484706420685	1
0	178	65.434597025275	1
0	185	67.260225555162	2
0	197	71.741998190176	0
0	200	72.840676937019	0
0	204	73.026739546332	3
0	211	78.785777675921	1
0	224	84.320522099502	4
0	238	90.025099602995	1
0	242	91.31039859401	3
0	257	95.902353899555	2
0	274	101.296076134547	3
0	276	101.672726410905	2
0	283	103.971415065229	0
0	287	106.278829058866	2
0	292	107.283144036076	3
0	302	112.861558249221	1
0	303	113.369910410254	1
0	311	115.833287448154	0
0	318	117.954718161608	2
0	331	123.930322900881	4
0	335	125.877125646803	1
0	347	129.828974368052	2
0	354	134.135741232896	3
0	361	135.456189119491	1
0	363	136.638621773221	1
0	374	140.143386933719	0
0	379	140.537923416357	1
0	395	145.973499365618	2
0	401	148.140505736113	2
0	411	151.483851659346	3
0	421	156.111884977669	0
0	427	157.083426154919	4
0	437	162.257527927751	3
0	442	162.916243557587	1
0	459	168.584536894925	3
0	474	174.324973901736	4
0	476	174.852827117547	2
0	479	175.75908815756	0
0	488	179.564600118904	1
0	492	180.955804937171	1
0	505	184.890332099751	1
0	515	188.228660315858	0
0	523	189.961567338558	2
0	529	192.447707072136	1
0	536	194.907223974822	3
0	541	195.196953339271	4
0	553	200.252734452488	1
0	558	201.710623015535	0
0	571	206.042349298254	2
0	579	209.59493237571	1
0	583	211.244233753767	3
0	589	211.775561904071	1
0	590	211.916809700781	0
0	608	217.71488739853	1
0	631	223.492967833534	2
0	642	227.380932088129	0
0	651	229.394458973084	3
0	653	229.442344959478	0
0	659	232.204782790388	2
0	664	234.94359382824	1
0	668	235.043147089661	1
0	677	238.820267425036	2
0	683	240.366494402991	2
0	695	245.148615659098	1
0	701	246.241417782617	2
0	708	249.214498609074	1
0	717	251.619702510539	1
0	725	253.600523866366	0
0	729	254.549303081123	0
0	737	257.485779728977	2
0	745	261.979688409017	1
0	749	262.71215718822	3
0	756	266.424542853492	2
0	762	267.842038945997	1
0	772	272.249602285564	0
0	779	273.594602340836	1
0	794	278.752707155888	1
0	798	278.920718359066	2
0	813	284.140195268443	2
0	816	284.834090548105	1
0	818	285.217512314674	1
0	833	289.837379817622	1
0	834	290.345324084518	0
0	849	295.002824521162	1
0	870	300.800841798079	2
0	891	306.236782572469	2
0	896	307.547736496553	1
0	898	307.933178777927	1
0	907	311.162037588194	0
0	912	311.281969982436	2
0	916	313.296992031163	0
0	918	313.662339847186	0
0	924	316.966694099367	1
0	925	317.736317533422	1
0	929	319.748878302639	0
0	935	322.159014143519	1
0	940	325.705363162799	0
0	945	327.76065233746	2
0	953	333.03205136117	1
0	964	338.286554271359	1
0	978	343.853208607066	2
0	991	348.977735514057	3
0	993	349.681856138869	0
0	1003	354.235568452862	1
0	1007	355.884158175445	2
0	1021	359.661556650189	2
0	1023	361.298350421947	1
0	1025	361.467137098781	1
0	1037	364.990762653996	1
0	1044	367.515418683996	0
0	1051	370.133492251863	1
0	1053	370.530349128067	0
0	1058	370.710765928033	2
0	1068	376.217247934084	0
0	1072	376.63161040447	1
0	1082	382.04604972224	3
0	1093	387.05414288142	4
0	1103	392.539571456265	3
0	1108	393.011691805443	4
0	1120	398.42696042685	1
0	1133	403.872438032183	0
0	1138	404.011473513676	2
0	1150	409.923908949832	5
0	1152	411.296506257032	4
0	1157	413.107724900709	1
0	1164	415.641163416442	2
0	1175	420.875878579451	5
0	1180	423.363519534123	4
0	1188	426.767770074776	1
0	1202	431.886754556329	3
0	1215	437.29164438532	5
0	1220	438.710837520778	2
0	1226	441.064492621228	4
0	1235	443.224503250097	3
0	1249	448.596752319721	5
0	1266	453.674430549846	1
0	1272	455.872934411515	4
0	1275	456.371625789328	0
0	1280	458.651119539054	0
0	1283	458.943009531012	3
0	1287	459.021475246179	1
0	1304	464.774459335257	4
0	1311	467.141100362874	2
0	1321	470.171131308426	3
0	1337	475.883603237572	4
0	1345	479.511715187927	0
0	1353	481.677682723853	1
0	1357	482.686354119446	3
0	1360	484.039845671855	3
0	1363	484.45064301824	0
0	1371	487.589812856869	4
0	1383	492.697713853794	4
0	1391	497.860316874575	3
0	1395	497.910269498595	5
0	1405	503.564823934691	2
0	1409	503.81441465393	3
0	1418	508.904640350028	4
0	1421	510.911522066335	3
0	1426	513.286556295005	4
0	1431	514.309362446659	1
0	1446	519.322443991204	4
0	1452	521.380868619543	0
0	1458	523.742223943818	3
0	1463	524.372803987938	1
0	1478	529.522671674847	2
0	1487	533.433543640424	2
0	1492	534.204199062773	3
0	1497	535.188092896718	4
0	1507	539.088815705736	1
0	1515	541.023012003166	1
0	1526	544.06159416994	0
0	1537	546.544350504413	3
0	1541	547.76426037913	3
0	1555	552.058400921294	4
0	1559	553.991970231406	3
0	1561	554.105131616818	2
0	1564	554.842893180905	1
0	1573	557.177947338441	4
0	1581	561.179674124928	0
0	1587	562.26179196779	2
0	1598	568.098010193094	3
0	1601	569.842161341105	2
0	1611	573.735074529893	1
0	1619	577.368575011962	3
0	1621	577.63364719495	0
0	1627	579.538286443337	3
0	1640	585.082583707993	1
0	1653	590.60529890843	1
0	1664	593.885823359366	0
0	1674	595.629776529505	4
0	1686	601.247025233112	2
0	1690	601.337667620511	3
0	1699	604.909717173085	0
0	1705	606.798287811226	4
0	1706	607.054166543064	3
0	1709	608.811535053769	2
0	1714	610.108914088107	1
0	1716	610.15008385596	3
0	1719	611.918966385185	0
0	1723	612.36021607742	1
0	1736	618.081639571584	2
0	1746	623.451825685569	4
0	1758	629.351541242332	5
0	1767	634.712097055743	4
0	1771	635.350713490977	1
0	1786	641.132425867257	5
0	1787	641.59693127545	1
0	1789	642.077967370048	0
0	1791	642.298140619298	4
0	1802	646.66592155374	5
0	1812	651.891331978146	1
0	1827	657.719938451661	1
0	1837	660.921327554625	0
0	1845	662.925440012947	1
0	1855	665.685771349121	0
0	1866	668.636809872235	1
0	1876	672.033683721557	4
0	1888	674.039192261179	2
0	1910	679.236872287006	3
0	1911	679.721874631828	2
0	1917	681.392046751576	0
0	1931	685.182207248178	5
0	1935	687.04448634701	0
0	1942	689.546383005451	4
0	1946	690.198508890816	1
0	1960	696.102537587988	3
0	1974	701.337865267186	4
0	1988	706.807982619735	3
0	1993	707.248783095046	2
0	1999	709.773036019294	2
0	2001	710.722354674483	3
0	2005	712.000017452874	1
0	2011	713.067998040472	2
0	2014	714.39956988255	2
0	2017	715.327264321967	1
0	2027	718.201720008631	2
0	2042	724.181395593337	3
0	2050	727.584517762885	1
0	2058	729.374164797371	2
0	2060	730.166424692031	2
0	2074	735.272715936653	3
0	2090	741.236495194496	4
0	2097	743.445189368795	3
0	2109	746.728748242609	1
0	2131	752.674111992825	2
0	2138	754.480337620716	1
0	2144	755.579825849621	2
0	2147	756.19996940438	0
0	2159	758.463404115528	3
0	2161	759.769011888891	1
0	2174	764.212538572732	3
0	2188	769.246109148725	2
0	2195	770.124264477525	4
0	2199	772.375761593464	0
0	2207	775.287748251582	1
0	2209	775.823360211097	3
0	2224	780.473069609847	2
0	2229	782.454512083906	1
0	2243	786.404140425852	4
0	2257	791.591480593203	5
0	2267	794.988575793689	0
0	2270	796.89387460531	1
0	2274	797.492394209845	2
0	2276	798.855228773093	1
0	2278	798.969064487957	4
0	2287	802.897613684652	2
0	2299	808.680488970136	3
0	2311	814.065261092275	1
0	2317	816.695094607185	3
0	2328	819.849599509971	4
0	2331	821.401558412596	3
0	2343	825.418068644596	4
0	2364	831.403795928001	1
0	2365	831.904800790719	0
0	2383	837.386747664311	2
0	2397	842.516063853405	1
0	2399	843.303599600221	1
0	2410	846.328732561666	3
0	2416	847.455727282454	2
0	2420	847.586767246952	4
0	2423	848.608728088444	0
0	2438	853.418849945306	1
0	2447	856.908222871608	1
0	2458	859.161365356068	2
0	2465	861.088197527458	0
0	2476	864.695364617514	2
0	2478	865.587536305302	3
0	2488	869.673987631575	1
0	2494	870.4571874484	1
0	2513	876.06623296021	2
0	2534	881.471164648426	2
0	2539	882.770125132293	1
0	2543	883.734502958258	1
0	2550	885.268328803704	2
0	2560	887.057299281708	2
0	2564	888.500699664007	1
0	2568	889.345455118578	1
0	2580	892.801445614784	3
0	2602	898.307730185571	2
0	2622	903.85910324194	4
0	2633	907.139999140179	0
0	2636	907.851443210507	0
0	2643	909.448925798065	1
0	2644	909.700739962638	1
0	2650	912.100181728725	0
0	2652	912.159427486939	3
0	2654	912.692078899364	0
0	2661	915.2529488029	1
0	2672	921.174075371823	4
0	2677	924.083747577035	3
0	2684	926.892661502822	1
0	2700	932.339545116764	1
0	2713	937.056608243966	0
0	2719	937.795180809688	4
0	2737	943.32414283208	2
0	2738	943.56232832291	1
0	2749	947.392814070455	0
0	2754	948.348554771397	1
0	2758	949.565590059615	3
0	2771	954.105848213196	1
0	2789	959.530920634749	2
0	2790	959.553881769309	1
0	2806	964.738988925474	2
0	2815	967.887427453888	0
0	2818	968.101692111473	1
0	2821	968.974136532637	0
0	2827	970.126345864734	4
0	2834	973.13684503338	3
0	2843	975.538107937206	4
0	2846	976.700754191374	3
0	2858	981.275647336388	1
0	2875	987.11114313058	2
0	2885	990.973175885851	2
0	2894	992.242018564375	2
0	2896	992.876602071683	1
0	2898	993.820772329354	1
0	2901	994.518265317081	1
0	2915	997.983587151397	2
0	2924	1002.974359630844	1
0	2931	1003.788519351747	1
0	2932	1004.261981406603	0
0	2939	1006.47458659043	0
0	2949	1009.575741354846	2
0	2958	1014.626442866404	1
0	2964	1017.271519129858	0
0	2973	1020.48567750026	1
0	2978	1023.093609618726	0
0	2981	1024.003283199396	1
0	2988	1026.231207774258	1
0	2995	1028.938166377605	0
0	3004	1031.396899110875	1
0	3016	1036.45838760515	0
0	3021	1036.615202949853	2
0	3025	1039.433762506589	1
0	3029	1040.834047344749	0
0	3034	1042.34326560726	1
0	3044	1047.576545069698	1
0	3060	1053.400231670826	1
0	3064	1054.371782128005	0
0	3082	1059.25431595068	2
0	3102	1065.226344614295	1
0	3108	1066.802752845696	1
0	3110	1066.952353597393	0
0	3125	1071.213599897694	2
0	3128	1072.567099415936	1
0	3140	1077.110412857035	2
0	3141	1077.389194625086	0
0	3149	1081.418031845017	1
0	3154	1082.628003583994	2
0	3159	1084.780949975252	1
0	3167	1088.580696241936	1
0	3185	1094.373537279206	2
0	3199	1098.965940859526	1
0	3203	1099.40993930563	1
0	3224	1104.926913394366	2
0	3244	1110.016198486561	2
0	3250	1111.724616596015	0
0	3255	1113.203682606815	1
0	3260	1114.868599792135	1
0	3263	1115.498577221072	0
0	3268	1115.906821051152	1
0	3276	1119.492652410299	0
0	3284	1121.029650019021	1
0	3292	1124.149272562128	0
0	3301	1126.930522938497	2
0	3312	1132.91557264282	3
0	3317	1135.360442235838	0
0	3319	1136.322922296129	2
0	3324	1138.118484467041	1
0	3336	1144.083932499873	1
0	3353	1149.52172121057	2
0	3366	1154.764183602768	3
0	3378	1159.697808888514	1
0	3383	1160.117463894893	1
0	3405	1166.097312329343	4
0	3407	1167.160531066481	0
0	3417	1170.84013211716	0
0	3422	1172.025549683959	1
0	3438	1177.811927182839	1
0	3440	1178.637995433996	3
0	3456	1182.941482504603	4
0	3458	1183.315330630174	0
0	3474	1188.750593579147	2
0	3488	1193.348412072874	0
0	3492	1193.978131966671	3
0	3497	1196.059252308453	2
0	3502	1198.613036636966	1
0	3507	1199.616478455724	1
0	3523	1204.988524723105	2
0	3537	1210.230509761726	1
0	3545	1213.030742458766	3
0	3550	1214.467365196327	1
0	3555	1216.108240704987	0
0	3559	1216.15000693291	1
0	3569	1219.136722629197	0
0	3578	1221.154009399242	4
0	3584	1223.702713652049	3
0	3587	1224.569997235088	0
0	3594	1226.211652377625	2
0	3605	1231.346582507952	3
0	3615	1236.377274389616	1
0	3627	1241.080894093729	2
0	3632	1241.492746673762	4
0	3647	1246.662715701624	3
0	3657	1250.6798987923	3
0	3659	1251.262549821991	0
0	3666	1252.630363678099	4
0	3676	1258.359433666109	1
0	3689	1263.148872877592	2
0	3693	1263.431276166118	5
0	3695	1264.138850039225	0
0	3707	1268.572768807882	6
0	3708	1269.463051948582	5
0	3718	1274.372044850612	6
0	3723	1276.867495375222	5
0	3731	1280.256650609901	3
0	3736	1282.061074556088	2
0	3745	1285.646416111389	3
0	3756	1290.987938859738	1
0	3761	1292.896535063631	2
0	3771	1296.279938970812	4
0	3775	1296.689248373504	3
0	3793	1302.347166544064	2
0	3811	1307.433465431682	4
0	3827	1312.929768776992	3
0	3829	1314.078657348528	3
0	3833	1314.752448449497	3
0	3846	1318.47814135254	4
0	3849	1319.386910804553	2
0	3853	1320.300807683732	2
0	3865	1324.239108449087	1
0	3868	1325.094699799205	3
0	3887	1329.978314513114	3
0	3906	1335.121508867253	4
0	3919	1339.594956634454	1
0	3927	1340.881248971919	5
0	3949	1346.689163332578	4
0	3957	1349.018543721299	4
0	3971	1352.155219157465	5
0	3978	1354.6370691089	3
0	3981	1354.837618471129	0
0	3993	1358.114546351606	1
0	3994	1358.498470549476	2
0	4015	1363.75468770811	3
0	4033	1368.244489207984	0
0	4039	1369.035915493505	4
0	4057	1374.906364616478	2
0	4064	1377.627048076836	4
0	4075	1380.198451435898	1
0	4095	1385.223423264694	2
0	4096	1385.487561780268	3
0	4100	1386.590062211391	1
0	4102	1386.754151197855	3
0	4116	1390.826750011306	2
0	4121	1391.161658945965	3
0	4132	1394.524257249438	2
0	4144	1397.156524923403	3
0	4145	1397.267222308907	2
0	4163	1402.999477250622	1
0	4167	1403.156248250283	4
0	4168	1403.543380134744	3
0	4171	1404.21768556396	0
0	4185	1408.994856738724	2
0	4189	1410.012447681631	1
0	4203	1414.555324322084	2
0	4210	1417.086514509756	1
0	4216	1419.331168897804	2
0	4221	1419.986687086994	2
0	4237	1425.297723713104	3
0	4256	1431.182778985478	1
0	4261	1432.68823326426	2
0	4277	1436.663891569251	3
0	4284	1438.646851236818	1
0	4290	1440.508276161508	2
0	4292	1440.882527946619	1
0	4300	1442.520409171242	2
0	4321	1448.009995280072	3
0	4330	1450.79618505866	2
0	4337	1452.896603591975	1
0	4343	1453.351876457227	2
0	4345	1453.794648273159	0
0	4361	1458.606551143346	1
0	4371	1462.619316628908	1
0	4378	1463.681600129237	2
0	4395	1469.072381061973	2
0	4399	1470.040782395985	1
0	4409	1473.163051754705	1
0	4417	1474.242528416455	2
0	4425	1477.059486540967	0
0	4434	1479.459162377292	1
0	4446	1482.438336856087	1
0	4459	1484.763910812331	2
0	4467	1487.717750329178	0
0	4471	1488.944743924547	1
0	4479	1490.319466175982	3
0	4495	1496.31465659617	4
0	4512	1502.184973239671	2
0	4527	1507.912637266103	3
0	4534	1509.906838403787	0
0	4537	1511.205422504111	2
0	4545	1513.647249687934	1
0	4548	1515.028639617263	3
0	4559	1518.746533311443	1
0	4567	1521.347278663892	2
0	4578	1523.819123007129	3
0	4593	1528.386503109131	1
0	4603	1529.656500965594	2
0	4611	1532.372907163115	1
0	4623	1534.69382767077	2
0	4632	1536.878368916577	0
0	4643	1540.120424722325	1
0	4644	1540.293466919807	2
0	4661	1545.676743527881	1
0	4665	1545.99049232039	2
0	4676	1547.926823556775	0
0	4689	1551.643535168379	2
0	4694	1553.867412241411	1
0	4705	1557.31051501958	3
0	4715	1560.902460181977	1
0	4723	1562.461419781207	2
0	4733	1566.369109755623	0
0	4739	1567.539547991476	1
0	4748	1571.107826505563	2
0	4756	1573.247911710761	3
0	4758	1573.363832928365	2
0	4762	1574.863515419073	1
0	4775	1578.251309812771	2
0	4785	1582.177097564806	1
0	4791	1583.304150618849	1
0	4812	1588.785327248744	3
0	4831	1594.03040518286	2
0	4835	1595.383660146039	2
0	4847	1597.890994582795	0
0	4853	1599.374654114016	3
0	4855	1599.604126906957	2
0	4874	1605.057696520353	0
0	4878	1605.209828624271	1
0	4880	1606.150290201427	1
0	4896	1611.036515926944	3
0	4909	1616.307223705577	4
0	4920	1620.130228595584	0
0	4923	1620.756360913513	3
0	4928	1621.797140293757	4
0	4940	1626.889095386958	1
0	4941	1627.367282989089	0
0	4946	1628.777008895415	0
0	4953	1632.101436005442	1
0	4956	1635.080079240378	3
0	4964	1637.371816621397	2
0	4977	1642.818508818515	1
0	4980	1644.066820940822	2
0	4994	1648.191652328942	1
0	5014	1653.389055742651	2
0	5021	1654.520636830133	1
0	5026	1656.23529911391	1
0	5035	1658.352950376579	0
0	5040	1658.660538896221	2
0	5050	1662.202317867433	0
0	5053	1662.829377575313	1
0	5060	1664.43391169631	1
0	5074	1669.752994137351	1
0	5094	1674.998859144049	2
0	5114	1680.543979049428	3
0	5124	1684.230437234397	1
0	5132	1686.223478983855	2
0	5140	1688.489175629685	2
0	5148	1690.423319380383	0
0	5155	1691.88365358673	2
0	5168	1696.580872315795	1
0	5174	1697.512869806029	1
0	5192	1702.784722768469	3
0	5206	1706.741937698913	2
0	5214	1707.996424141806	3
0	5226	1711.832568088434	2
0	5235	1713.883501759731	3
0	5236	1713.916143419683	0
0	5246	1718.505519059957	2
0	5252	1719.137351972983	1
0	5272	1724.835153548048	3
0	5274	1725.017661433434	0
0	5282	1727.56180625141	0
0	5289	1730.154418430991	4
0	5301	1735.441944817082	3
0	5303	1736.278687850338	2
0	5316	1740.770971318941	1
0	5328	1745.9133042302	5
0	5333	1747.527220878057	4
0	5340	1749.738279129028	1
0	5347	1751.059969204713	2
0	5353	1754.01725504757	0
0	5360	1756.273478121266	3
0	5372	1761.982862455307	1
0	5380	1764.783923785552	2
0	5382	1765.385384479309	3
0	5393	1767.944023551422	4
0	5412	1773.263393037955	1
0	5433	1778.789794143059	2
0	5442	1780.866555341403	1
0	5448	1782.718588641146	0
0	5452	1783.604896680105	3
0	5454	1783.818077978796	0
0	5459	1784.304779221539	1
0	5474	1789.41020362871	4
0	5490	1794.775050989587	1
0	5491	1795.498409973576	3
0	5509	1800.095630693717	4
0	5522	1804.245550786846	0
0	5529	1805.692387661433	2
0	5534	1807.470252972914	1
0	5547	1811.53042785777	3
0	5563	1816.882029465635	4
0	5572	1820.718157887462	3
0	5578	1822.645787661898	1
0	5598	1828.071563880428	2
0	5600	1828.603496962113	2
0	5604	1829.293859637579	3
0	5619	1833.156741324582	3
0	5641	1838.88878328563	2
0	5644	1839.979885824259	2
0	5647	1840.160931341236	1
0	5652	1841.935793399816	1
0	5663	1844.387345693077	2
0	5683	1849.769992530814	2
0	5685	1850.219015573386	1
0	5690	1851.439913240963	2
0	5702	1854.712656616702	1
0	5707	1855.062629224502	3
0	5729	1860.505324994915	2
0	5732	1862.027632726824	1
0	5740	1864.133143931515	2
0	5749	1865.69391462696	2
0	5766	1870.71350870887	1
0	5771	1871.005816529041	3
0	5792	1876.549414866373	4
0	5793	1876.696290809665	1
0	5795	1876.810067220594	3
0	5814	1881.595986321803	2
0	5815	1882.161155108832	0
0	5826	1886.136080981584	1
0	5830	1886.800747275121	4
0	5834	1888.175103037388	3
0	5841	1890.59819253313	0
0	5847	1891.824937902392	1
0	5860	1896.98547382746	1
0	5871	1900.181874068804	0
0	5880	1902.03759219125	4
0	5889	1905.323165825803	3
0	5894	1906.643749803539	0
0	5898	1907.475612542127	2
0	5909	1912.686963083456	4
0	5913	1914.928959501793	3
0	5921	1918.423933445011	4
0	5935	1924.066119379597	3
0	5939	1926.326090500575	2
0	5948	1929.682805864606	1
0	5962	1934.928490811029	1
0	5966	1935.062956371112	2
0	5970	1936.735969711682	3
0	5977	1939.691778160865	1
0	5983	1940.680100420956	1
0	6006	1946.335231726524	2
0	6012	1948.039802812855	0
0	6025	1952.103425588925	1
0	6030	1953.092664920493	1
0	6033	1953.889016403352	0
0	6045	1957.240911656293	2
0	6053	1960.224151776173	1
0	6060	1962.687794107249	2
0	6064	1963.112179216231	3
0	6079	1968.957600961673	2
0	6080	1969.1016009911	1
0	6085	1970.985893486886	0
0	6090	1973.27351086773	0
0	6096	1974.940077820328	1
0	6099	1977.281625157109	2
0	6108	1980.735574400286	1
0	6114	1983.677323619254	0
0	6123	1986.620284859092	1
0	6139	1991.979833312334	3
0	6154	1997.228194874946	2
0	6171	2002.921046931531	1
0	6176	2004.726331092067	0
0	6189	2007.964963609121	3
0	6191	2008.397303656562	2
0	6194	2009.466242196388	2
0	6199	2010.531011070707	1
0	6208	2013.04252898018	1
0	6220	2016.45541140542	0
0	6228	2018.765932712007	2
0	6234	2020.647647402251	1
0	6247	2023.93740304094	2
0	6248	2024.563363314841	1
0	6264	2029.900061794559	1
0	6287	2035.416973327522	2
0	6303	2040.599879454824	3
0	6304	2040.679926897286	0
0	6310	2042.240405672929	2
0	6318	2044.486176134786	0
0	6323	2045.759863557064	1
0	6340	2050.814201649281	2
0	6354	2055.963008451278	3
0	6370	2061.060665133645	1
0	6378	2063.408179904918	1
0	6384	2065.502441888792	1
0	6392	2066.283569663533	2
0	6408	2070.637644354488	0
0	6414	2071.465648181506	2
0	6425	2074.772200331443	2
0	6431	2076.291451481752	1
0	6437	2077.098439364696	3
0	6445	2080.008210954837	0
0	6451	2082.162138932386	3
0	6465	2088.040341950954	1
0	6469	2089.726701829468	2
0	6471	2089.959878653638	2
0	6483	2093.879026644631	2
0	6499	2099.772845940432	3
0	6509	2103.491224423286	1
0	6517	2105.492772313068	1
0	6522	2107.366394547864	0
0	6536	2111.237023474882	3
0	6537	2111.290142339539	2
0	6547	2114.709163549356	0
0	6556	2117.040288513061	4
0	6561	2120.494009542397	3
0	6567	2122.384719596943	1
0	6568	2122.559016693502	2
0	6579	2127.028344720488	1
0	6584	2127.54995608679	2
0	6586	2128.001364928556	0
0	6597	2132.771819893969	1
0	6611	2138.148093794472	1
0	6621	2141.106575467162	1
0	6629	2143.678822960592	0
0	6633	2143.738756659673	1
0	6650	2148.915282811969	2
0	6668	2154.405142027301	1
0	6672	2154.870174563489	2
0	6693	2160.289425886586	0
0	6697	2160.388020935468	3
0	6701	2162.524240502853	0
0	6707	2165.175826076302	1
0	6713	2166.096692263381	2
0	6726	2171.573387456359	1
0	6727	2171.710686085396	2
0	6743	2176.619411416817	3
0	6757	2181.928330515744	2
0	6773	2187.721525541274	1
0	6788	2192.36496848031	2
0	6792	2193.320884999354	2
0	6793	2193.336594878464	1
0	6810	2198.144479788957	1
0	6815	2198.329933989328	2
0	6819	2199.196724526701	1
0	6825	2201.00788587844	0
0	6827	2201.124576930773	1
0	6830	2201.802067362705	1
0	6839	2203.66170361871	2
0	6856	2209.597722318024	3
0	6874	2214.792360604508	2
0	6891	2220.772061254829	4
0	6906	2226.493225411628	1
0	6910	2226.53322488442	1
0	6921	2229.846225583461	3
0	6929	2231.652298513334	2
0	6936	2234.083926398887	0
0	6949	2237.130181476241	1
0	6969	2243.060789870331	2
0	6987	2248.591651830355	1
0	6990	2248.724967238145	0
0	6994	2248.82257347391	2
0	7010	2254.710995477857	1
0	7019	2257.163926614915	2
0	7033	2260.121282418491	3
0	7041	2263.089507719154	2
0	7054	2266.009460365632	3
0	7055	2266.475799614794	2
0	7064	2269.134567949805	0
0	7075	2271.767814378719	3
0	7094	2277.656203675083	1
0	7101	2279.796838806941	2
0	7104	2280.196772718217	1
0	7117	2282.676098813069	3
0	7130	2287.119210510628	0
0	7138	2288.257002823054	4
0	7141	2289.509241902737	3
0	7149	2292.291600875791	2
0	7156	2293.581335045396	3
0	7174	2298.812655183718	3
0	7178	2300.515106704669	0
0	7185	2303.623209400334	2
0	7190	2304.091265308204	4
0	7194	2306.262099570013	3
0	7203	2309.401669426122	1
0	7208	2311.336423208121	1
0	7211	2312.236571138144	2
0	7222	2315.134227916598	2
0	7229	2318.317690137775	1
0	7236	2320.276887782616	2
0	7253	2326.025107701308	3
0	7257	2327.16091964964	2
0	7272	2331.907604112522	3
0	7274	2332.348246688022	2
0	7286	2336.792322028896	0
0	7292	2337.345132810296	3
0	7305	2343.205984057392	4
0	7317	2348.947249839547	1
0	7323	2351.74179698422	1
0	7332	2354.209151405142	2
0	7342	2358.881388203124	3
0	7349	2359.678629489382	4
0	7356	2363.456216409802	1
0	7365	2365.56128035183	1
0	7385	2371.141737851779	2
0	7386	2371.17937031004	0
0	7406	2376.835731711005	5
0	7419	2381.670942395922	0
0	7423	2382.303824686677	1
0	7429	2383.750808965647	1
0	7435	2386.082430441746	4
0	7444	2387.945321506819	2
0	7449	2390.007606764324	1
0	7460	2393.648399539989	2
0	7476	2399.296023055444	5
0	7480	2400.778419871696	1
0	7495	2405.174481207038	2
0	7514	2411.080500282346	6
0	7516	2411.692835755995	5
0	7526	2416.288009877664	1
0	7531	2416.635164393577	6
0	7545	2422.473288014065	1
0	7554	2425.085745468965	0
0	7563	2427.451970260007	5
0	7568	2428.027489133412	2
0	7582	2433.440971647389	3
0	7587	2435.699361749923	0
0	7591	2436.622844912112	2
0	7597	2439.0635366817	6
0	7602	2441.637919045401	5
0	7611	2444.214307440444	6
0	7612	2445.449440740512	5
0	7615	2447.335253424477	1
0	7623	2450.124573759734	1
0	7639	2455.393710920121	2
0	7653	2460.634346800856	1
0	7658	2462.824368416914	1
0	7672	2466.061113885371	2
0	7674	2466.767463594674	4
0	7680	2468.501522705426	0
0	7693	2471.89936352917	3
0	7695	2472.518167542528	2
0	7711	2476.973826430505	1
0	7722	2480.502493992332	0
0	7731	2482.920204242924	1
0	7732	2483.409688642482	1
0	7755	2488.865951712243	5
0	7770	2493.203044238032	4
0	7777	2494.630853481823	2
0	7798	2499.973481852678	1
0	7803	2500.180113367503	2
0	7824	2506.052273743087	2
0	7827	2506.477812791014	0
0	7832	2507.711521247055	1
0	7845	2511.77410819265	5
0	7860	2516.845403885934	3
0	7869	2520.507416263691	0
0	7871	2520.509870181905	4
0	7875	2522.212972218986	2
0	7879	2522.580825049197	1
0	7896	2528.475913597271	3
0	7912	2533.975695398869	2
0	7927	2539.323070431594	5
0	7937	2542.404846204325	4
0	7947	2544.794950171141	4
0	7962	2549.924941465259	1
0	7966	2551.291083572432	1
0	7968	2551.902789167713	3
0	7976	2553.879029066537	2
0	7985	2555.549596742494	3
0	8004	2561.26001515286	2
0	8015	2564.8024528739	3
0	8024	2566.868323347764	2
0	8047	2572.225181784946	3
0	8056	2574.308766644909	2
0	8062	2576.326552209327	2
0	8074	2578.117126909317	4
0	8080	2579.869993962581	1
0	8087	2581.604722246646	3
0	8096	2583.159456143388	3
0	8106	2586.239212320996	2
0	8115	2588.426982143428	2
0	8136	2593.473409276223	3
0	8149	2597.610753822258	1
0	8157	2598.564428479877	4
0	8159	2598.875821429074	2
0	8174	2603.778938480414	3
0	8181	2604.53608789458	2
0	8184	2605.238063412951	1
0	8190	2606.81063395075	0
0	8199	2609.358170035646	1
0	8205	2610.245101122419	1
0	8208	2611.001497637715	1
0	8227	2616.050333149965	2
0	8247	2621.533519251972	2
0	8257	2624.461343599013	2
0	8272	2627.502304526746	2
0	8292	2633.261190013729	3
0	8299	2634.535776157399	2
0	8302	2634.837256792004	1
0	8319	2638.900020941162	2
0	8321	2639.396535210655	1
0	8327	2640.876265438043	1
0	8337	2644.075732213447	0
0	8342	2644.255073539448	3
0	8357	2649.964034419275	4
0	8364	2653.622008202015	3
0	8373	2655.83498276095	1
0	8384	2658.499278984267	1
0	8395	2661.20010883757	2
0	8397	2661.698950698367	2
0	8413	2666.356013116893	2
0	8416	2666.498146969354	1
0	8434	2672.091145109386	2
0	8438	2672.750555105153	1
0	8454	2677.141908508726	3
0	8465	2679.875343805412	1
0	8467	2680.285727339795	0
0	8477	2683.073701409856	4
0	8481	2684.271673738956	0
0	8489	2688.717887066306	3
0	8493	2688.907440699404	2
0	8497	2691.629322612536	1
0	8504	2694.362597855739	1
0	8524	2700.183874509996	4
0	8539	2705.341868936084	1
0	8540	2705.778108068968	0
0	8558	2711.310478589963	2
0	8565	2713.516400638619	3
0	8577	2717.097214711597	3
0	8590	2722.469177428517	2
0	8594	2722.59440029622	1
0	8603	2725.319567130645	2
0	8608	2727.123586596924	0
0	8616	2728.406531898071	1
0	8628	2731.920027063811	1
0	8640	2734.288053578929	3
0	8651	2737.831497233944	0
0	8660	2739.967071473365	4
0	8676	2745.319273182656	1
0	8678	2746.170938291005	0
0	8693	2751.106639018515	2
0	8698	2752.785334388024	3
0	8700	2753.182192652951	0
0	8706	2756.452205016858	1
0	8710	2756.704291004222	2
0	8720	2762.319483166095	3
0	8733	2767.704311672365	4
0	8743	2772.846492100972	1
0	8756	2777.191360389462	2
0	8762	2778.199993163347	1
0	8767	2779.783952059922	0
0	8780	2783.6788050842	2
0	8787	2785.939149504291	3
0	8799	2789.458749507553	3
0	8816	2794.540554994484	3
0	8817	2794.715245881231	2
0	8819	2795.890940160024	2
0	8832	2799.642597796861	3
0	8834	2799.906786434932	2
0	8850	2805.357249544235	1
0	8851	2806.437478849197	1
0	8863	2809.465525778474	0
0	8870	2810.904317619745	4
0	8885	2816.228244927945	5
0	8888	2817.477783442937	1
0	8896	2820.860343019013	0
0	8901	2821.445741047617	2
0	8904	2823.074151002919	4
0	8914	2826.968218199676	1
0	8928	2832.414268800058	2
0	8930	2833.191847799113	1
0	8935	2834.73771697329	1
0	8943	2837.42548762518	2
0	8945	2837.583238567343	3
0	8960	2842.479379026918	1
0	8977	2847.900414137403	2
0	8978	2848.094476991333	0
0	8995	2853.821269696113	3
0	8997	2853.963906242977	1
0	9012	2859.167249289574	4
0	9027	2864.48913315963	1
0	9031	2865.78916687111	2
0	9038	2867.576674896754	3
0	9051	2870.224831355736	2
0	9052	2870.30658184446	0
0	9066	2875.142244184388	1
0	9070	2875.737119665137	4
0	9086	2881.257848607377	2
0	9097	2885.723382397322	1
0	9105	2887.228984880728	1
0	9124	2892.758099578089	2
0	9131	2894.274078604179	3
0	9148	2898.378796711798	4
0	9151	2898.794445809326	0
0	9154	2899.394628263777	1
0	9161	2902.965169669827	0
0	9168	2904.127996317578	5
0	9171	2905.80390399939	1
0	9181	2909.8620548388	6
0	9195	2915.678106306355	7
0	9198	2917.522326361501	6
0	9207	2921.315341165756	2
0	9218	2926.452011793387	3
0	9223	2928.872973524149	2
0	9231	2932.222148728791	1
0	9235	2933.996261911579	5
0	9248	2937.696631462547	2
0	9262	2942.728597595125	1
0	9281	2948.208056571895	3
0	9301	2954.005687355531	2
0	9304	2954.765294421927	1
0	9307	2955.240022049869	1
0	9322	2959.169810094639	4
0	9328	2961.590648195818	4
0	9340	2964.190117181746	5
0	9350	2966.900588347229	4
0	9352	2966.950046704031	0
0	9363	2969.405013608748	5
0	9379	2975.254829626532	5
0	9394	2980.357802938904	6
0	9404	2984.95505626895	5
0	9408	2985.7960597215	0
0	9412	2986.1308749998	6
0	9423	2991.81594533939	7
0	9426	2993.012905106997	6
0	9437	2996.879111539573	6
0	9439	2997.59985642368	5
0	9450	3002.008111408214	6
0	9457	3006.678864056587	5
0	9462	3007.794700309169	7
0	9469	3010.827411541599	6
0	9476	3013.069448330906	7
0	9477	3013.731327085407	6
0	9482	3016.953402705142	5
0	9487	3018.093802269316	1
0	9495	3020.976836650866	0
0	9503	3023.319688376506	6
0	9505	3024.3964706551	4
0	9515	3028.642815673259	7
0	9528	3034.339623825393	1
0	9541	3039.263174345833	6
0	9547	3039.783716697946	1
0	9569	3045.751400724055	2
0	9574	3047.434992247496	0
0	9584	3050.552928166225	3
0	9586	3050.826281536136	5
0	9592	3051.668274006808	4
0	9609	3057.01864712476	5
0	9625	3062.85330859828	6
0	9641	3068.05212701508	7
0	9642	3068.199392931883	4
0	9646	3069.433191702936	1
0	9659	3073.066731926521	2
0	9662	3074.334057447149	3
0	9674	3078.716718545644	6
0	9678	3078.767042458525	3