version 3
run General-4-20240428-16:41:48-11295
attr configname General
attr datetime 20240428-16:41:48
attr datetimef 20240428-164148
attr experiment General
attr inifile omnetpp.ini
attr iterationvars $0=true
attr iterationvarsd true
attr iterationvarsf true-
attr measurement $0=true
attr network Supermarket
attr processid 11295
attr repetition 4
attr replication #4
attr resultdir results
attr runnumber 4
attr seedset 4
config network Supermarket
config repeat 10
config seed-set 4
config num-rngs 10
config **.use_random_strategy true

vector 0 Supermarket queueSizeOverTime:vector ETV
attr recordingmode vector
attr source updateQueue
attr title queueSizeOverTime
vector 1 Supermarket customerWaitingTime:vector ETV
attr interpolationmode none
attr recordingmode vector
attr source customerFinished
attr title "cust waiting time"
0	7	5.407687024679	1
0	14	10.519857759355	1
0	25	15.653937577736	2
0	26	16.805543753667	1
0	38	21.496995927301	2
0	49	27.36039822572	3
0	52	29.086816667812	0
0	60	33.317797337427	4
0	63	36.302676985623	3
0	68	38.67520860117	1
0	73	41.914505394874	2
0	80	44.037504492328	2
0	93	49.22498576832	3
0	105	54.71427060524	4
0	116	60.680968599394	1
0	124	63.893099286593	3
0	131	65.7063054326	1
0	135	66.305650480557	2
0	152	71.706249552546	4
0	169	77.202655721456	0
0	173	77.545990232145	5
0	176	78.311582114663	4
0	188	83.412485207896	3
0	189	83.916155781131	3
0	197	88.608259274275	2
0	201	88.68526394735	3
0	212	93.866510684135	1
0	213	94.132317414625	2
0	229	99.476149762514	4
0	243	105.224008117336	3
0	261	110.558546688873	4
0	265	111.998512822786	3
0	278	116.212578357663	1
0	294	121.052026308492	2
0	299	121.945592096774	2
0	304	123.774975028119	0
0	306	123.816915382981	3
0	316	126.986338735558	2
0	318	127.172905743822	1
0	322	127.232732403791	3
0	339	132.624457763276	3
0	354	138.285898580915	2
0	355	138.450513363117	2
0	361	141.009903621978	1
0	363	141.126749862917	1
0	372	143.476483147592	2
0	378	145.500729450492	2
0	386	148.388635150741	1
0	392	149.042436886579	2
0	405	154.250016332139	3
0	425	159.957341280068	3
0	428	160.676221602017	2
0	439	164.433736997655	2
0	446	165.806680748007	3
0	462	171.372364564799	3
0	479	176.595444613137	2
0	481	177.120872593256	1
0	495	181.773199391319	4
0	508	186.410170039864	0
0	512	187.552519599442	1
0	519	190.254895084189	3
0	522	190.632129551377	2
0	531	193.081673198613	1
0	549	198.101335805143	2
0	555	200.03319080663	1
0	571	203.740914600436	2
0	589	208.746411584784	4
0	593	209.711002817028	1
0	605	212.341563147609	3
0	613	213.887501322432	3
0	618	214.883796752781	2
0	623	216.148297147941	0
0	637	219.400912487414	4
0	645	222.738571794705	1
0	655	224.808206391055	1
0	677	230.631739035947	2
0	694	235.813772314111	1
0	698	235.967063915683	2
0	701	236.511809988996	3
0	713	239.841964574995	1
0	721	241.658897744026	2
0	744	247.230835208669	4
0	750	249.4251691415	1
0	764	252.418151985388	2
0	774	255.364964112173	0
0	782	257.845799381145	1
0	786	257.969747523777	2
0	794	261.89162484091	0
0	803	263.862176213879	5
0	805	264.67667610885	1
0	810	266.547439914314	4
0	817	268.926108293002	1
0	835	274.761623332742	1
0	844	277.534709237398	0
0	854	280.345949600916	1
0	860	282.228029432123	0
0	869	285.422435627435	0
0	873	286.20483460417	1
0	890	292.166141605703	5
0	891	292.277093139011	4
0	907	297.235017701285	2
0	911	298.994143365881	3
0	921	303.097392950907	0
0	925	303.205206173239	1
0	943	309.079755829647	4
0	955	313.698550707661	1
0	960	314.446658493718	1
0	979	319.934053818928	2
0	980	319.951286561554	0
0	992	323.083992611149	3
0	996	324.784335088917	1
0	1000	325.244686733466	2
0	1014	330.639872193803	4
0	1030	336.35203844891	2
0	1034	338.159952026444	1
0	1046	341.887630696642	1
0	1054	344.503726770283	3
0	1065	347.314860188403	2
0	1085	352.607708285563	2
0	1096	355.483939875966	1
0	1103	357.439931676719	2
0	1106	357.972556068563	0
0	1111	358.22354841372	1
0	1127	363.305335731478	3
0	1129	363.557921185392	1
0	1141	367.18610942166	1
0	1149	368.701527379686	4
0	1170	373.795771111967	2
0	1177	375.921099269175	3
0	1179	376.177554008087	0
0	1189	379.103700323962	1
0	1193	380.558143374047	0
0	1209	385.094664335251	2
0	1219	390.168858461078	2
0	1225	390.781823637895	3
0	1227	391.07641658606	1
0	1242	395.945926870219	3
0	1245	397.358886345407	2
0	1254	400.386405822937	0
0	1256	400.97938266874	1
0	1261	401.821287295082	2
0	1273	407.007866839878	1
0	1279	409.274502105657	2
0	1284	410.962580936146	0
0	1290	412.562144719064	3
0	1302	417.64346096362	1
0	1313	423.369455980024	1
0	1317	423.506752349902	1
0	1324	425.820899386893	0
0	1329	427.483711043024	0
0	1335	428.614055784885	2
0	1345	433.676511015743	1
0	1348	435.487146299215	1
0	1357	438.891359899071	2
0	1361	438.893184942659	2
0	1364	440.446784617611	0
0	1367	441.53054690617	1
0	1374	444.329056923976	1
0	1380	447.287987601243	0
0	1389	449.882073796587	3
0	1391	450.886702013784	0
0	1398	455.672229711432	4
0	1399	456.500879064547	3
0	1406	461.270839965669	1
0	1410	464.619952060278	2
0	1418	467.198670843616	2
0	1429	472.405877714278	1
0	1433	474.414332405199	1
0	1445	477.981616074219	2
0	1452	480.748811269406	1
0	1463	483.204304875573	1
0	1483	489.099975645542	2
0	1500	493.774193337305	1
0	1507	494.586853470653	3
0	1522	499.024692384287	2
0	1528	499.992946102284	3
0	1536	501.935190363205	0
0	1544	504.621548830998	0
0	1550	505.710927265696	4
0	1559	510.353794912104	3
0	1562	510.911325718737	2
0	1566	511.375318466685	1
0	1580	516.789437090279	2
0	1595	522.296576659427	1
0	1596	522.299171401541	1
0	1614	527.522750948555	2
0	1617	528.363975374838	1
0	1623	530.128885879995	0
0	1635	532.796802586875	2
0	1651	538.161245227791	1
0	1655	539.559814148818	0
0	1669	543.744961096206	1
0	1688	548.964893376221	2
0	1690	550.195098166242	1
0	1695	551.382063780906	1
0	1708	553.979436146793	3
0	1709	554.381166205164	0
0	1717	557.427689080125	2
0	1727	559.866410887101	1
0	1746	565.271904657827	3
0	1764	570.392953164642	2
0	1768	571.203973741614	0
0	1771	571.678262948176	1
0	1782	575.638839611902	0
0	1787	576.13956268737	1
0	1791	578.321887028403	0
0	1801	581.896951153408	2
0	1804	583.021236852394	2
0	1816	587.7210687201	3
0	1827	593.703399368096	3
0	1830	595.76814236387	2
0	1839	599.490666955476	1
0	1842	600.854040091507	2
0	1857	605.074950403766	3
0	1870	610.415835071122	4
0	1885	616.024258228484	5
0	1892	618.260136253667	0
0	1901	621.772796372184	1
0	1905	623.991521132875	1
0	1912	626.813920344807	0
0	1917	627.05932840635	6
0	1922	630.433930953731	0
0	1927	632.081441833404	1
0	1928	632.27486672846	5
0	1942	637.848763189045	2
0	1951	643.456541204592	1
0	1955	643.663427792256	6
0	1964	648.88962137862	5
0	1968	649.350926250451	1
0	1985	655.325950338271	2
0	1990	657.347049774369	4
0	1998	660.704942977755	0
0	2003	661.250600829253	1
0	2012	665.191103329299	1
0	2017	666.307328634195	2
0	2035	671.895421050254	1
0	2040	673.128099635476	1
0	2060	677.737277439328	2
0	2063	678.565757981269	3
0	2081	682.068928688879	1
0	2087	683.115391439058	2
0	2095	685.975230358659	2
0	2106	688.294599989195	2
0	2120	693.558113610485	1
0	2125	693.756860912543	3
0	2146	699.695101461604	2
0	2149	700.800808810514	0
0	2165	705.085459885884	3
0	2170	706.619945221579	2
0	2174	707.252523375208	1
0	2185	710.300056149483	4
0	2187	710.869741614445	1
0	2195	714.034088679704	3
0	2204	716.02509840438	2
0	2218	721.198090302989	2
0	2228	724.941943947577	1
0	2235	726.450133326229	4
0	2250	732.017332955495	1
0	2257	734.025524062101	3
0	2259	734.614621235175	1
0	2273	737.725674724438	4
0	2292	743.490982478251	2
0	2295	744.581196552259	0
0	2297	744.59550352243	1
0	2301	745.657082149755	3
0	2305	746.988017721563	2
0	2313	749.281916975974	2
0	2326	754.33001896087	1
0	2343	759.521860416978	3
0	2360	764.10950182355	0
0	2368	765.412548250518	4
0	2383	770.53058185894	2
0	2389	773.708085052314	3
0	2394	775.416596313355	1
0	2399	776.477747415425	1
0	2413	780.493390232091	0
0	2418	782.404341166957	1
0	2423	782.473629683722	4
0	2438	788.097350548487	2
0	2455	793.688053805381	2
0	2462	796.071807864348	3
0	2471	798.746123550693	1
0	2472	798.816876852767	1
0	2492	804.151273350232	2
0	2507	808.513814066422	1
0	2516	809.957585315454	2
0	2520	811.358131038252	2
0	2533	815.283626117044	1
0	2538	815.424918904436	2
0	2560	821.307421210922	3
0	2564	822.381668595017	0
0	2578	826.921492663679	4
0	2581	828.54100689816	1
0	2593	831.969139519847	1
0	2599	833.715514856385	1
0	2604	834.448472663878	0
0	2614	837.527766149259	5
0	2622	840.651145730751	0
0	2629	843.461122337264	1
0	2644	849.06878137146	4
0	2649	849.360697411002	2
0	2659	854.537977833652	0
0	2661	854.610032322466	3
0	2666	855.261249571341	4
0	2679	860.416920265417	3
0	2689	865.446413866246	1
0	2691	866.348533386706	2
0	2704	871.072099672865	3
0	2708	872.792650453162	3
0	2723	877.063778394602	1
0	2726	878.077940190791	2
0	2743	882.334797669437	4
0	2744	882.542864246983	3
0	2748	883.325473207284	0
0	2750	884.344605967044	2
0	2759	887.735447161239	1
0	2765	888.058739257746	3
0	2782	893.886250031882	2
0	2783	894.115848083863	2
0	2795	898.509677429916	1
0	2801	899.273546261949	3
0	2809	902.07257494785	2
0	2819	904.610043150842	2
0	2835	910.120267998431	3
0	2844	913.953441038484	0
0	2851	915.228287662383	3
0	2862	920.684668974023	1
0	2877	926.14537749533	2
0	2878	926.779294929468	2
0	2885	928.746461468405	2
0	2895	931.76733308379	3
0	2903	934.700437854632	1
0	2913	937.644267709697	1
0	2926	941.411925928787	1
0	2933	943.192146172285	2
0	2946	947.029015884269	2
0	2950	948.228463071404	0
0	2955	948.817180419344	2
0	2968	953.976741852708	1
0	2978	956.86040521658	1
0	2990	959.145311217526	3
0	2992	959.800852233897	2
0	3008	964.408967040949	2
0	3019	967.504241046849	1
0	3030	969.728878390747	3
0	3032	970.120779081136	2
0	3051	975.352557730633	2
0	3061	978.296859211169	1
0	3072	981.144160089088	2
0	3073	981.502932912906	1
0	3075	981.634269251376	1
0	3098	986.825388176605	2
0	3118	992.189675428677	2
0	3138	998.10102012009	3
0	3145	1000.4239618174	0
0	3151	1002.955955488144	1
0	3155	1003.114521020331	4
0	3159	1004.524695602717	1
0	3165	1006.449476876066	3
0	3172	1008.685929186648	2
0	3191	1014.101025652612	2
0	3196	1016.342287842304	2
0	3208	1019.995598554384	3
0	3224	1025.700652000034	1
0	3233	1028.851784084232	1
0	3244	1031.160651898483	4
0	3245	1031.512048700126	3
0	3255	1034.462399897753	0
0	3262	1036.424949643906	3
0	3274	1040.662198707	2
0	3281	1041.536621763609	1
0	3290	1044.421312679885	2
0	3301	1046.822299136785	2
0	3321	1052.232101412262	2
0	3335	1056.871935149887	1
0	3340	1057.294611367402	3
0	3348	1059.816399503272	1
0	3350	1060.240515890421	1
0	3363	1063.185782459569	2
0	3367	1064.647292898275	2
0	3385	1068.820096166343	3
0	3404	1074.264802463124	4
0	3417	1077.452872399595	3
0	3426	1079.290331028173	2
0	3434	1082.631881988845	1
0	3446	1085.246730361371	3
0	3454	1087.606422204059	0
0	3461	1089.712701040091	2
0	3465	1090.322647965518	3
0	3468	1091.19687157439	2
0	3471	1092.016823410645	0
0	3476	1094.031545324371	1
0	3481	1095.467562820302	1
0	3497	1100.494834768824	2
0	3514	1106.123738529632	1
0	3522	1109.807191429898	0
0	3525	1110.039847455224	1
0	3531	1111.856612561743	2
0	3535	1111.986731860327	1
0	3537	1112.711467578313	0
0	3540	1113.59593096737	1
0	3552	1117.638098148169	2
0	3555	1118.838954961866	0
0	3565	1122.728451899491	1
0	3571	1124.647921054162	1
0	3576	1126.353238417772	0
0	3583	1128.311662112834	2
0	3594	1133.817250141647	1
0	3610	1139.636855792726	1
0	3612	1140.140375703928	0
0	3622	1143.664553010609	1
0	3628	1144.791965432704	2
0	3642	1149.719517228782	0
0	3646	1150.137286583899	1
0	3662	1156.005074242834	2
0	3673	1160.508842949061	1
0	3679	1161.47490433022	2
0	3691	1166.716466937104	0
0	3697	1167.444321987923	3
0	3699	1168.053114728308	2
0	3711	1173.195170330355	1
0	3727	1178.806917255517	2
0	3733	1181.398350886657	1
0	3736	1181.648570111721	1
0	3745	1184.455726750666	2
0	3753	1187.111327258643	1
0	3763	1190.146447589393	2
0	3773	1194.049426218382	1
0	3781	1195.789713678421	2
0	3788	1198.198532570972	1
0	3796	1200.304161990294	0
0	3801	1201.002184455055	3
0	3812	1206.176053618319	4
0	3816	1208.118778362527	3
0	3826	1211.885988782165	1
0	3842	1217.867350182734	1
0	3857	1222.591466661546	0
0	3864	1223.047761892439	2
0	3878	1228.51064563287	3
0	3881	1229.203567739347	2
0	3897	1233.981773900572	1
0	3906	1236.645348731431	0
0	3916	1239.349254419567	3
0	3917	1239.35144110397	2
0	3930	1244.076788195647	0
0	3935	1244.684859336592	1
0	3952	1250.496854426345	4
0	3968	1255.966325794818	1
0	3976	1258.400046930304	0
0	3983	1261.369455978163	3
0	3987	1261.412613295024	1
0	3999	1264.705772170919	0
0	4008	1267.384274376329	2
0	4017	1271.022297296444	1
0	4022	1272.071465711115	1
0	4028	1272.594346545875	1
0	4037	1275.59376759362	0
0	4039	1275.806696935912	0
0	4047	1277.806282301439	1
0	4060	1282.910790369386	1
0	4063	1284.169560540939	2
0	4076	1287.592613342919	0
0	4083	1288.828528469434	3
0	4093	1292.267385043908	0
0	4102	1294.601081601815	1
0	4110	1298.085723937726	0
0	4119	1300.331632005987	1
0	4126	1303.765789372154	2
0	4135	1306.129426176199	2
0	4151	1311.548265426192	3
0	4159	1314.385438046541	1
0	4170	1317.078881210886	2
0	4184	1322.549710396683	4
0	4186	1322.911897792721	0
0	4188	1323.121165043446	3
0	4197	1327.013595548348	1
0	4202	1328.31653201697	1
0	4217	1334.275655661482	1
0	4231	1338.734665900126	0
0	4235	1338.982950751558	0
0	4239	1339.434994327841	4
0	4247	1343.208191876886	0
0	4250	1344.453257188903	3
0	4254	1344.612596583558	1
0	4259	1348.079132502671	0
0	4265	1350.319176479015	1
0	4272	1355.073374042873	2
0	4276	1355.325867112033	1
0	4293	1361.2368507376	1
0	4300	1363.004436811669	1
0	4313	1366.535642680252	2
0	4318	1368.005222791695	1
0	4334	1371.638566684449	2
0	4353	1377.207251320831	2
0	4358	1379.086713462838	1
0	4362	1379.800245549183	0
0	4367	1381.118199957076	0
0	4373	1382.353176951181	1
0	4390	1388.271764619049	1
0	4393	1389.329148325843	1
0	4396	1389.819192170404	0
0	4405	1393.479571112318	0
0	4409	1393.605091332464	1
0	4423	1399.195041720063	2
0	4437	1404.611141995533	3
0	4454	1409.630211965886	2
0	4471	1414.661470999482	4
0	4472	1415.252305151553	1
0	4478	1417.249694652511	3
0	4489	1419.994768580195	4
0	4492	1420.919671730143	0
0	4503	1425.619268329472	0
0	4507	1425.819813738117	1
0	4517	1430.84162621643	2
0	4519	1431.091787710675	3
0	4530	1436.49424077245	1
0	4535	1438.604256428668	1
0	4547	1442.457360877195	2
0	4548	1443.252752442616	2
0	4565	1448.335569245047	1
0	4573	1450.639570689882	0
0	4583	1453.8470527574	3
0	4588	1456.038964291109	0
0	4593	1458.161741089433	1
0	4598	1458.998636973794	4
0	4611	1464.132419239502	5
0	4623	1470.077027079422	1
0	4626	1471.254616059137	0
0	4628	1471.557825943693	4
0	4637	1475.301399782073	1
0	4652	1480.811167791026	2
0	4665	1485.981820185907	1
0	4666	1486.964097603114	0
0	4677	1490.346260506549	1
0	4679	1491.335011909954	0
0	4684	1491.603951733099	1
0	4686	1492.932387251412	3
0	4692	1495.062331367988	0
0	4698	1496.617698698543	2
0	4709	1501.980332820216	1
0	4726	1507.665218281099	4
0	4737	1512.24391912355	3
0	4744	1513.339411182334	1
0	4762	1518.563058485748	2
0	4784	1524.180522073531	4
0	4798	1528.81602482731	1
0	4800	1529.042659209812	0
0	4806	1529.980932600801	3
0	4817	1534.218517879493	3
0	4826	1535.875462403526	4
0	4831	1538.096466869469	3
0	4842	1541.036604725062	4
0	4843	1541.120417371396	3
0	4852	1544.526826476915	2
0	4859	1546.325112415715	1
0	4860	1546.809438065978	2
0	4880	1551.651890469952	1
0	4885	1551.778564463607	3
0	4901	1556.452967917202	0
0	4908	1557.619664109084	4
0	4915	1560.548847252392	0
0	4923	1563.271949217194	2
0	4933	1568.380434606462	1
0	4943	1572.009621065463	1
0	4952	1574.059672433422	2
0	4956	1575.325875631187	3
0	4970	1579.166367929434	4
0	4972	1579.946023076312	1
0	4981	1583.36632421031	0
0	4987	1585.162509769439	5
0	4999	1590.514733145018	1
0	5003	1592.212960898297	4
0	5010	1594.814082800532	0
0	5016	1595.590858652261	5
0	5027	1601.101577725033	1
0	5042	1606.158611304597	2
0	5043	1606.663179554282	0
0	5050	1609.957869586423	1
0	5056	1611.887169096856	2
0	5069	1617.702134870696	1
0	5073	1619.38191500004	4
0	5083	1622.961356170713	5
0	5095	1627.715362914261	1
0	5098	1628.562048222292	0
0	5102	1628.666573315398	1
0	5118	1634.155656997119	2
0	5133	1639.638678768189	2
0	5143	1643.077329155879	4
0	5151	1645.331630470469	3
0	5165	1650.774564759112	4
0	5182	1655.976343502062	3
0	5183	1656.065214692855	3
0	5195	1660.975690541329	2
0	5199	1661.163007579282	5
0	5203	1663.127074909054	4
0	5206	1663.530508675269	1
0	5216	1666.27789246431	1
0	5223	1668.702883109341	3
0	5235	1671.382887172284	4
0	5243	1673.573547085752	3
0	5250	1675.495345368638	0
0	5257	1676.806619431362	4
0	5263	1680.047364985343	2
0	5273	1682.781238813889	3
0	5290	1688.68765282352	4
0	5292	1689.179774383203	0
0	5301	1694.190124853753	3
0	5305	1694.388865919788	5
0	5306	1694.951873267658	4
0	5312	1697.657108648105	3
0	5317	1699.766299965915	2
0	5321	1699.819934315984	4
0	5331	1704.842121551749	5
0	5334	1706.398585157825	4
0	5343	1710.329169810521	1
0	5358	1715.454961028886	1
0	5382	1720.750725129158	2
0	5402	1726.11420496996	3
0	5413	1729.541066624465	1
0	5429	1732.083095051585	2
0	5435	1733.502938049271	3
0	5453	1738.024487283318	3
0	5456	1738.090119486678	2
0	5460	1739.822820336799	0
0	5467	1741.882037943816	2
0	5475	1743.47488590959	3
0	5488	1748.642732147365	1
0	5505	1753.740303677279	4
0	5527	1759.668576345086	4
0	5534	1761.256522006364	3
0	5539	1762.614545098743	3
0	5545	1764.205562041382	2
0	5552	1764.913122141274	3
0	5560	1767.725375110521	2
0	5569	1770.188564658637	2
0	5591	1775.96187161422	3
0	5599	1777.852237896882	2
0	5605	1779.528343674267	1
0	5613	1781.180120748008	3
0	5632	1786.379756795248	3
0	5636	1787.622621206225	2
0	5651	1791.819060272543	4
0	5654	1792.681278886279	2
0	5667	1795.753423006163	3
0	5674	1797.092217382981	4
0	5694	1802.165277920902	2
0	5714	1807.609694427584	3
0	5717	1808.075144913636	3
0	5724	1810.464943056701	2
0	5731	1812.457553919876	1
0	5737	1812.942703470827	4
0	5754	1817.984390108853	5
0	5760	1819.643820694769	1
0	5769	1822.497517601942	4
0	5777	1823.666236371274	2
0	5788	1827.318368338403	1
0	5794	1828.918742320623	0
0	5799	1829.331564685802	3
0	5817	1835.269425963989	1
0	5823	1837.76968025056	2
0	5836	1840.983355074894	5
0	5856	1846.913010703406	6
0	5859	1847.636255091761	5
0	5878	1852.65079491004	2
0	5888	1855.811619997847	1
0	5893	1856.751484632846	1
0	5903	1858.61952849385	6
0	5904	1859.055376002805	0
0	5914	1862.940093789256	5
0	5921	1864.527474768466	1
0	5934	1868.285046351265	4
0	5942	1869.573263393721	2
0	5946	1870.662330707657	0
0	5960	1875.246102267882	5
0	5974	1880.968966941588	6
0	5976	1881.157899963558	1
0	5981	1882.934006432195	0
0	5990	1886.298074641038	1
0	5993	1887.181270489823	5
0	6010	1892.244929425191	6
0	6022	1897.273806662418	0
0	6026	1897.968853192875	7
0	6038	1903.519572539493	1
0	6046	1907.357968991976	0
0	6052	1908.524563226854	1
0	6061	1912.566083106333	6
0	6068	1914.156016458762	2
0	6077	1917.418115941928	5
0	6079	1918.006543910018	0
0	6085	1919.562019339069	1
0	6086	1919.715456175391	1
0	6089	1920.461864364105	4
0	6091	1920.956109333207	0
0	6102	1925.483519047504	1
0	6116	1930.490578586474	5
0	6133	1935.708420999819	2
0	6151	1941.575829120358	2
0	6161	1945.125099657455	4
0	6169	1947.168362512026	3
0	6172	1947.848121131311	2
0	6176	1949.03841339099	1
0	6180	1949.825727473719	0
0	6189	1953.101204205776	1
0	6205	1958.941949032486	1
0	6225	1964.781906415249	2
0	6244	1969.849623396533	3
0	6249	1971.233791400916	2
0	6258	1973.842126885085	1
0	6265	1975.396860047715	2
0	6270	1976.849590161467	3
0	6272	1977.35078205006	0
0	6279	1978.777787796342	1
0	6288	1981.260839423869	4
0	6304	1987.093395352369	5
0	6317	1991.829591366	1
0	6322	1992.898258663254	1
0	6340	1998.036342675338	2
0	6351	2000.752734831657	0
0	6359	2003.369997682056	1
0	6366	2005.360720771483	4
0	6374	2007.634040656504	1
0	6377	2008.257214254589	0
0	6382	2008.920827237197	5
0	6387	2010.084454608154	0
0	6395	2014.366255673233	4
0	6399	2014.545800020925	1
0	6400	2015.136477193799	0
0	6406	2017.106507893076	0
0	6412	2019.809703576385	1
0	6423	2025.154088153045	1
0	6433	2030.080317863615	3
0	6439	2030.627762795898	1
0	6451	2034.893700860914	0
0	6457	2035.857095884166	1
0	6477	2041.034494227038	2
0	6496	2046.111421761343	2
0	6500	2046.996211696187	2
0	6516	2051.67006871431	0
0	6521	2051.727481829243	1
0	6530	2054.585230621629	1
0	6538	2056.709102008611	1
0	6543	2057.070616448073	2
0	6563	2062.554502693013	3
0	6564	2062.639682006915	1
0	6568	2063.303590336008	0
0	6585	2068.144848930658	4
0	6591	2071.137329275258	3
0	6602	2073.747248396752	4
0	6609	2076.173331704233	0
0	6619	2079.742651814138	5
0	6622	2081.193396229066	0
0	6629	2085.301118397628	1
0	6641	2090.667741367136	6
0	6653	2096.602714014481	1
0	6655	2097.69345192996	5
0	6663	2099.797875297498	0
0	6671	2102.226950829392	1
0	6683	2107.588250238458	0
0	6689	2108.141176053099	2
0	6701	2113.853325351616	3
0	6709	2118.600633274887	4
0	6715	2119.737471396112	5
0	6722	2124.375695088883	2
0	6727	2125.181629013977	3
0	6738	2130.709712921417	6
0	6751	2136.051804974218	4
0	6752	2137.29683194566	5
0	6762	2141.495333643406	5
0	6765	2142.816875253575	4
0	6775	2147.024023636486	5
0	6777	2148.084503745199	4
0	6782	2150.302333050998	4
0	6790	2152.879068353222	1
0	6797	2156.130520247164	3
0	6805	2158.181852877847	5
0	6821	2164.027288421531	2
0	6829	2166.736948895387	4
0	6838	2169.61116924324	5
0	6855	2174.964720742786	4
0	6863	2178.01331278263	4
0	6872	2180.101347498139	5
0	6878	2182.698985809932	1
0	6881	2182.840805412161	3
0	6891	2185.701521646473	4
0	6894	2187.058981232582	4
0	6908	2191.362826518258	5
0	6910	2192.393177812693	0
0	6923	2197.181512062447	1
0	6938	2202.744406044027	6
0	6939	2203.337176976849	3
0	6944	2204.713286759686	5
0	6956	2208.125253458517	4
0	6961	2210.498215144855	3
0	6973	2213.135447766409	6
0	6978	2215.014772468949	5
0	6988	2217.817164143203	2
0	6995	2219.10468212097	3
0	7010	2224.820156505221	4
0	7014	2225.080397459222	1
0	7023	2228.171580081928	2
0	7032	2230.128734230539	3
0	7034	2230.4528554628	0
0	7042	2233.243195940285	0
0	7050	2235.431375592724	5
0	7051	2236.05205671059	2
0	7062	2240.772558583189	3
0	7063	2241.187457871978	4
0	7074	2245.930253311536	1
0	7091	2251.907437405093	4
0	7111	2257.733138868595	1
0	7127	2263.427863826049	3
0	7132	2263.66736206553	2
0	7136	2264.518540812083	0
0	7145	2267.281899352796	3
0	7151	2268.683396876799	4
0	7170	2274.595521637481	3
0	7186	2280.037730107326	5
0	7202	2285.074630038356	4
0	7208	2287.345615637027	2
0	7210	2288.3131149218	4
0	7212	2288.43928582583	3
0	7219	2290.600223900288	1
0	7224	2290.851244265688	5
0	7226	2291.774594075283	0
0	7231	2294.088516815221	4
0	7238	2296.051422057915	1
0	7255	2301.42679952505	5
0	7259	2302.798132200731	4
0	7265	2305.570981306963	2
0	7273	2307.250074997553	1
0	7285	2310.99516220834	0
0	7292	2312.357050915956	3
0	7296	2313.59333002475	2
0	7305	2317.431549658772	3
0	7310	2317.686417698636	1
0	7328	2322.805794727997	3
0	7338	2325.016419377071	0
0	7349	2328.000011283913	2
0	7354	2329.770679911025	2
0	7367	2333.787650452703	4
0	7386	2339.353158917986	5
0	7402	2345.085927012619	1
0	7405	2345.698646097802	1
0	7411	2348.112048837016	1
0	7417	2349.630657480568	4
0	7427	2350.725760104377	2
0	7440	2354.638689016584	1
0	7444	2355.439393955287	3
0	7449	2355.92758090213	2
0	7451	2356.544164962023	2
0	7455	2357.420534535669	0
0	7469	2361.770495331623	3
0	7485	2367.666463386044	4
0	7502	2373.30008542818	3
0	7507	2374.780239044349	3
0	7512	2376.725275387642	2
0	7521	2378.850265705501	3
0	7538	2384.315394871877	1
0	7539	2384.630219662573	0
0	7550	2388.317914880705	2
0	7552	2389.166989361759	0
0	7556	2389.517296221815	3
0	7562	2392.533945470236	2
0	7569	2394.942711907914	4
0	7580	2400.000341994232	1
0	7594	2405.117482033801	5
0	7602	2408.369201105562	4
0	7610	2410.7112028855	3
0	7616	2413.06190542866	0
0	7624	2415.779322426311	1
0	7639	2421.469597852567	5
0	7646	2423.925200879924	2
0	7655	2426.895868692441	4
0	7659	2426.913856532901	2
0	7674	2432.39568380966	1
0	7695	2437.930932061292	2
0	7698	2438.642294953355	1
0	7715	2442.981252043985	3
0	7724	2446.129743734967	3
0	7730	2448.018439917252	0
0	7736	2448.503751009481	3
0	7739	2449.21918830917	2
0	7752	2453.765535474999	1
0	7766	2457.881008027704	2
0	7772	2458.946516075881	3
0	7775	2459.654301881674	1
0	7791	2464.117642615234	4
0	7798	2466.157020301908	0
0	7805	2469.044848975387	3
0	7811	2469.792366259276	2
0	7827	2475.654212736302	4
0	7842	2481.314766584207	1
0	7847	2482.447898959168	3
0	7853	2484.002773572004	2
0	7862	2486.651096875209	1
0	7868	2487.170088107708	3
0	7872	2488.349004403581	2
0	7878	2490.665302920048	1
0	7889	2492.840032665302	2
0	7890	2492.911576898782	2
0	7908	2498.224898049153	1
0	7912	2498.270834417093	2
0	7935	2503.941699176805	2
0	7943	2506.070072011103	1
0	7957	2509.662130849913	3
0	7963	2510.832931979805	0
0	7971	2513.910401242444	1
0	7980	2515.638495430827	2
0	7987	2518.805147870571	2
0	7996	2520.863066428818	3
0	7997	2520.945002872042	1
0	8008	2524.772826017818	2
0	8015	2526.012294199096	2
0	8016	2526.552026399655	1
0	8033	2531.984372922463	1
0	8052	2537.21606167826	2
0	8054	2537.785230343237	1
0	8057	2538.42022169662	1
0	8069	2542.094761030644	0
0	8076	2543.168555586144	2
0	8077	2543.231280236516	1
0	8089	2547.940691187524	0
0	8093	2548.299025946075	1
0	8099	2551.101134354953	0
0	8107	2553.810867111443	1
0	8120	2559.084273390716	2
0	8135	2564.146671016246	2
0	8151	2569.368654150294	3
0	8154	2570.808598088112	0
0	8160	2573.884942822984	1
0	8164	2574.671124454599	1
0	8172	2578.183847697229	2
0	8177	2579.734977862226	0
0	8179	2579.945069602817	1
0	8183	2580.26036389895	2
0	8195	2586.228473133885	1
0	8212	2591.526814273105	3
0	8230	2597.337111188111	1
0	8253	2603.301365479141	2
0	8262	2605.826263154981	0
0	8264	2606.297522766759	2
0	8275	2609.141209731124	2
0	8292	2614.87493309962	1
0	8302	2618.248530593831	1
0	8313	2620.775634201257	3
0	8324	2623.644251525646	1
0	8332	2625.926512260468	2
0	8338	2626.590791636393	2
0	8361	2632.510323520298	2
0	8381	2638.068412381005	3
0	8383	2638.625216821567	0
0	8400	2644.039280275595	3
0	8404	2646.241248852121	2
0	8415	2649.641119352555	3
0	8416	2649.69953746385	2
0	8420	2651.553125492428	1
0	8427	2653.807019140117	1
0	8435	2655.456450796001	1
0	8454	2660.547218073871	2
0	8472	2666.319425490349	0
0	8476	2666.500173511462	2
0	8488	2671.143468325623	2
0	8493	2671.92298376771	3
0	8504	2676.623136294085	1
0	8510	2676.96241064953	4
0	8522	2681.449126919279	1
0	8524	2681.828050952182	0
0	8530	2682.796397842246	5
0	8542	2688.125150749705	6
0	8555	2693.919406918123	2
0	8556	2695.185513046002	5
0	8566	2699.787514669135	3
0	8578	2705.150533277089	4
0	8590	2710.747979853781	6
0	8591	2711.247041567822	3
0	8603	2716.034360644421	1
0	8607	2717.802078770486	5
0	8619	2721.863331796848	2
0	8637	2727.132996820626	4
0	8643	2729.575260251542	1
0	8649	2732.11303279911	4
0	8652	2732.343869102781	3
0	8656	2733.095748402658	1
0	8658	2733.52598164418	2
0	8677	2738.707752741654	2
0	8685	2740.963890853701	0
0	8696	2743.998107672217	3
0	8702	2746.029326993867	3
0	8713	2749.102434358806	4
0	8732	2755.0743673721	4
0	8735	2756.55997458311	3
0	8737	2757.020633292746	3
0	8749	2760.099360045292	4
0	8750	2760.139428607899	3
0	8757	2762.119431669137	1
0	8768	2765.338250993066	2
0	8785	2771.26344294242	4
0	8790	2773.512921166385	2
0	8800	2776.456188879454	1
0	8817	2781.497671906962	3
0	8821	2781.584138924967	3
0	8839	2787.263778614472	2
0	8845	2787.531856823725	2
0	8862	2792.384737323051	2
0	8867	2792.803497822735	3
0	8868	2793.334275633225	1
0	8877	2796.132715701602	1
0	8888	2798.032092605264	2
0	8910	2803.531596144673	4
0	8932	2809.04790113495	2
0	8944	2813.186057336522	1
0	8954	2814.700660086016	3
0	8956	2815.435596328586	3
0	8968	2818.707750768178	1
0	8972	2820.063148821714	0
0	8974	2820.339210169399	0
0	8980	2820.634493808041	1
0	8982	2821.603508867452	2
0	8997	2826.131349078857	2
0	9008	2829.942298783467	1
0	9015	2831.992549546308	2
0	9021	2833.022156472914	1
0	9026	2834.380490363701	2
0	9035	2837.584889912991	0
0	9039	2837.7966024147	1
0	9054	2842.975319786708	1
0	9060	2844.435950381811	1
0	9080	2848.673121775513	2
0	9087	2850.831203754888	0
0	9094	2852.401352758764	0
0	9100	2854.288374907582	3
0	9109	2858.974157570172	2
0	9115	2860.06107717125	1
0	9128	2865.353068114969	3
0	9132	2866.263765295628	2
0	9146	2870.965671829193	2
0	9147	2871.778253156236	1
0	9161	2876.233497694147	2
0	9167	2877.91395927501	1
0	9181	2882.039944350499	1
0	9199	2887.075714475953	2
0	9207	2889.52955734824	1
0	9213	2890.942198695974	1
0	9220	2892.1837750557	2
0	9226	2893.832508477276	0
0	9239	2897.974606895831	2
0	9256	2903.019732309284	1
0	9258	2903.919254757592	1
0	9261	2904.34029219417	1
0	9269	2906.79656110286	0
0	9271	2906.97976579623	1
0	9277	2908.527627033891	2
0	9293	2914.443131751858	3
0	9302	2918.451550680457	2
0	9310	2920.070279925142	3
0	9325	2925.50573673147	2
0	9328	2926.577851284075	1
0	9330	2926.82655092912	0
0	9341	2930.920631360274	1
0	9347	2934.216737786436	0
0	9355	2936.175024741806	2
0	9358	2937.844313851217	2
0	9361	2939.013717681178	1
0	9368	2941.680640669551	2
0	9375	2945.408220105113	1
0	9382	2947.343672535161	1
0	9389	2950.786681542534	1
0	9397	2952.576401051145	2
0	9403	2955.265681588795	0
0	9405	2955.360932613269	1
0	9413	2958.533751508698	2
0	9418	2962.135592037008	0
0	9425	2963.742992025579	1
0	9435	2968.9476131003	2
0	9448	2974.770361704763	3
0	9452	2976.957002771449	1
0	9460	2980.128085581364	1
0	9479	2985.957309001835	2
0	9480	2986.733222240595	2
0	9488	2989.829397637757	1
0	9495	2991.020823161362	1
0	9516	2996.929187852901	2
0	9523	2998.908924611416	1
0	9537	3002.553662363568	1
0	9541	3002.736887427757	2
0	9543	3003.266270976176	0
0	9558	3008.470242888213	3
0	9564	3010.665532381866	0
0	9573	3014.324945889658	2
0	9578	3016.539717958437	2
0	9586	3019.490646024945	1
0	9603	3025.296477434703	2
0	9605	3025.735016332951	1
0	9615	3028.599269431566	1
0	9624	3030.949739152112	3
0	9642	3036.543719525694	4
0	9660	3041.937448424532	5
0	9667	3044.422246843355	4
0	9669	3044.8332147319	0
0	9672	3045.49752810273	0
0	9677	3047.638443646499	5
0	9684	3053.248899332493	1
0	9687	3055.152062573133	0