version 3
run General-17-20240428-16:41:49-11318
attr configname General
attr datetime 20240428-16:41:49
attr datetimef 20240428-164149
attr experiment General
attr inifile omnetpp.ini
attr iterationvars $0=false
attr iterationvarsd false
attr iterationvarsf false-
attr measurement $0=false
attr network Supermarket
attr processid 11318
attr repetition 7
attr replication #7
attr resultdir results
attr runnumber 17
attr seedset 7
config network Supermarket
config repeat 10
config seed-set 7
config num-rngs 10
config **.use_random_strategy false

vector 0 Supermarket queueSizeOverTime:vector ETV
attr recordingmode vector
attr source updateQueue
attr title queueSizeOverTime
vector 1 Supermarket customerWaitingTime:vector ETV
attr interpolationmode none
attr recordingmode vector
attr source customerFinished
attr title "cust waiting time"
0	7	5.927480536979	1
0	15	11.79990683496	1
0	28	16.947914938908	1
0	37	20.631736142444	0
0	45	22.080174043309	1
0	58	27.206120239804	1
0	77	32.305890995777	2
0	83	34.250986401224	1
0	91	36.503635108471	0
0	98	37.338350028266	1
0	99	37.958276679622	0
0	115	42.545458723326	1
0	124	44.351304932148	0
0	135	48.039628281259	1
0	149	53.157138048554	0
0	154	53.390744610923	1
0	170	58.430539234309	2
0	176	60.298060645118	1
0	180	61.656253425635	0
0	191	63.646976129385	1
0	197	65.213902799529	0
0	200	66.060396008427	0
0	209	69.033025278943	1
0	227	74.969484869391	1
0	228	75.274100971759	0
0	230	75.334041256924	0
0	240	80.84212012589	1
0	257	86.331380691612	1
0	273	91.350696637528	2
0	294	96.884452430531	2
0	295	97.009566663882	1
0	304	99.251363123768	0
0	316	102.840414871461	1
0	334	108.254147114933	0
0	339	108.77550301724	1
0	350	112.086557468283	0
0	357	113.856069938163	1
0	362	114.057072159367	1
0	368	116.015045956826	0
0	382	119.952685931463	1
0	402	125.451035490258	2
0	419	130.420413740443	0
0	426	131.191190166397	1
0	436	134.364009465325	0
0	446	136.399983258218	1
0	452	138.550955770536	0
0	458	140.410096062347	0
0	463	141.896661756326	1
0	479	147.048957623773	1
0	486	148.711189533349	0
0	488	148.907266390041	1
0	494	150.754132228553	0
0	501	152.800841349642	1
0	506	154.456500151309	0
0	508	155.828580774715	0
0	514	158.126620513153	1
0	527	163.761441964888	1
0	542	168.763216197723	1
0	551	172.000630946126	0
0	561	174.405938576441	1
0	568	176.810835713638	0
0	580	179.558758110739	1
0	587	181.765153447399	0
0	590	181.936041981447	0
0	592	182.978130462929	0
0	599	185.141853493405	1
0	611	191.110403804341	1
0	618	194.189810531096	0
0	626	196.844132106518	1
0	633	199.874002514872	0
0	640	201.967547650914	1
0	641	202.013467790325	0
0	645	202.870604971306	0
0	651	207.008450121851	1
0	657	209.884434602339	0
0	663	212.075515541713	1
0	673	217.348714286694	1
0	676	218.098998583619	0
0	680	220.10439926549	0
0	687	222.968674001982	1
0	698	228.885540230898	1
0	716	234.808478347491	1
0	718	236.214303645538	0
0	726	238.361728781603	0
0	730	239.949465030106	0
0	734	240.71955275326	1
0	743	245.480040361289	0
0	748	246.661739944247	1
0	758	251.872782562393	1
0	776	257.412170946597	1
0	792	261.961351385341	0
0	797	262.48162070685	1
0	808	266.452379115275	0
0	816	267.964392080902	1
0	834	273.068746348376	2
0	842	275.519486700649	0
0	855	278.785004858858	1
0	875	284.078855566912	2
0	884	286.932958762626	0
0	890	288.816575256293	1
0	896	289.65276112547	1
0	900	290.980540837511	0
0	907	293.303080105454	1
0	914	294.809702864381	1
0	915	295.010917468693	0
0	922	297.047844180951	0
0	932	300.528573139802	1
0	942	304.701399936806	0
0	948	305.933156581827	1
0	959	310.900094791431	0
0	965	311.385148537577	1
0	977	316.063217929097	0
0	979	316.117627877509	0
0	984	317.106259952997	1
0	990	321.12293071451	0
0	995	322.305177681147	1
0	1001	326.696333041763	0
0	1006	327.432021648156	1
0	1017	332.775705147999	1
0	1034	338.584979803067	1
0	1050	343.2923549877	0
0	1055	344.427700638187	0
0	1059	344.505510055458	1
0	1064	346.724145084503	0
0	1071	349.801804441956	0
0	1075	350.380022205643	1
0	1087	355.999272487823	1
0	1091	357.680311172036	0
0	1101	361.388165471841	1
0	1115	366.503805106737	1
0	1128	371.334827926474	0
0	1135	372.13892497937	1
0	1147	375.42326376133	0
0	1157	378.053327753672	1
0	1162	379.186896683995	0
0	1175	383.822295287622	1
0	1197	389.620857641332	2
0	1214	394.925930021097	1
0	1219	395.14449313632	2
0	1225	397.41222969489	0
0	1231	399.565880362756	0
0	1235	400.554596474625	1
0	1243	402.784346923227	0
0	1250	405.706483559215	1
0	1266	410.808529278727	1
0	1289	416.745446529004	2
0	1292	418.051331632884	1
0	1302	420.654333457813	0
0	1310	422.437679882159	1
0	1322	425.474298372862	1
0	1332	427.747772304106	2
0	1340	430.116982437085	0
0	1354	433.177342904729	1
0	1359	435.227571547961	0
0	1372	438.422520522957	1
0	1395	444.398171939652	2
0	1407	448.149413221863	0
0	1414	449.725393685277	1
0	1418	450.984829701832	1
0	1421	451.549672001271	1
0	1434	455.39077947079	2
0	1435	455.539389854411	0
0	1437	455.71617634827	0
0	1451	460.595016965641	1
0	1459	463.953750260057	1
0	1468	466.488947838078	1
0	1483	470.716574641872	0
0	1491	472.003833535359	1
0	1492	472.506131898611	0
0	1509	477.74605232803	1
0	1522	481.743859578855	0
0	1524	481.829264266764	0
0	1527	483.067563329589	0
0	1531	483.56293262611	1
0	1541	488.715342598966	1
0	1550	493.089984313119	0
0	1557	494.638703413539	1
0	1571	500.013426505959	1
0	1572	500.462816482641	0
0	1591	505.686273348982	1
0	1612	511.458733153295	2
0	1615	512.506394029011	0
0	1617	512.550716387223	0
0	1619	513.11806946888	0
0	1626	516.814722870941	1
0	1627	517.315728367653	1
0	1630	519.161195458725	0
0	1636	521.932074022711	1
0	1646	527.109942400361	1
0	1653	529.674085246397	0
0	1657	531.767644031555	0
0	1662	532.404216506284	1
0	1671	537.941044056088	1
0	1687	543.749587559838	1
0	1696	546.306214822455	0
0	1707	548.943848205961	1
0	1709	550.141062645821	0
0	1713	551.343386566731	0
0	1720	553.696713506012	0
0	1724	554.790641065685	1
0	1737	560.374029522061	1
0	1750	565.432958754709	1
0	1769	570.766691886352	2
0	1782	574.525273025266	0
0	1784	574.673861238405	0
0	1789	576.176795454694	1
0	1790	576.227771827483	1
0	1792	576.393667983587	0
0	1797	579.05213485751	0
0	1803	581.935594106557	1
0	1815	587.567549310856	1
0	1822	590.69903305615	0
0	1829	592.873966341138	1
0	1839	596.044901602434	0
0	1845	598.024942242772	1
0	1860	603.994232543976	1
0	1867	606.178684655459	0
0	1879	609.267763744573	1
0	1880	609.759621212141	0
0	1890	613.100563782732	0
0	1897	614.865676726912	1
0	1904	617.758934318787	0
0	1912	620.702516643562	1
0	1923	624.620439017655	0
0	1930	626.006948014254	1
0	1933	627.127209422528	0
0	1942	631.032066833925	1
0	1958	636.091688688377	1
0	1962	637.557502990469	0
0	1974	641.351787314748	1
0	1987	644.847713917841	0
0	1998	647.284417166838	1
0	2012	651.934975316164	0
0	2019	653.184003305386	1
0	2041	658.425247241973	2
0	2057	663.091682799973	0
0	2063	663.757836254311	1
0	2072	666.270051418802	0
0	2075	667.468934035626	0
0	2083	669.429754031819	1
0	2091	672.462760775696	1
0	2096	674.434555084791	0
0	2101	674.826441118258	1
0	2112	679.879892727823	1
0	2134	685.634159580802	2
0	2154	691.220509823176	2
0	2162	693.828541935421	1
0	2172	696.04040143464	0
0	2177	697.176596929782	1
0	2196	702.635831585384	2
0	2199	703.745443246327	1
0	2209	706.751551372694	0
0	2214	708.156538888927	0
0	2218	708.554706005377	1
0	2230	713.954473027258	1
0	2236	715.8311945803	0
0	2244	718.507230088345	1
0	2250	719.931351529199	1
0	2252	720.312419980529	0
0	2268	725.757811485322	1
0	2273	727.288817285208	0
0	2288	731.62235196214	1
0	2298	735.60441297502	0
0	2307	737.505722936707	1
0	2317	740.637535688348	0
0	2324	742.724841345799	1
0	2326	743.533882842048	0
0	2337	746.74179739435	0
0	2345	747.923893046099	1
0	2355	752.886565082354	0
0	2360	753.203921789768	1
0	2375	758.897101569454	1
0	2386	762.366105128661	0
0	2390	762.834308015764	0
0	2396	764.846896837697	1
0	2408	769.53751594969	0
0	2411	770.405599314719	0
0	2415	770.701451986328	1
0	2417	771.572457879897	0
0	2423	775.824736084787	1
0	2435	781.364684760103	1
0	2449	787.211789388906	1
0	2461	791.003890786087	0
0	2470	792.817040608262	1
0	2488	797.9594065377	2
0	2510	803.639210333813	2
0	2513	805.044794615474	1
0	2515	805.321724566279	1
0	2532	808.807622198014	2
0	2536	809.728188053471	0
0	2539	810.395208992413	0
0	2541	810.443178118787	0
0	2547	813.966382576151	1
0	2557	819.167972003574	1
0	2564	822.032434672698	0
0	2572	824.368065126472	1
0	2582	828.555612325435	0
0	2589	830.273544401162	1
0	2598	834.210047914297	0
0	2604	835.559412690111	1
0	2605	835.69594693952	1
0	2621	841.497765646082	1
0	2640	846.711537363472	2
0	2644	847.605717159108	0
0	2647	848.048928556729	0
0	2657	852.220943746388	1
0	2660	853.00439857633	1
0	2673	857.644196212057	1
0	2677	859.359965540819	0
0	2682	860.847296453895	0
0	2691	863.131047547793	1
0	2708	868.434391079934	1
0	2728	873.978788664795	2
0	2734	875.679956178646	0
0	2741	877.874898033098	0
0	2749	879.956022157797	1
0	2751	881.211536602231	0
0	2755	883.161268263703	1
0	2762	885.523746765915	1
0	2776	890.590539491035	1
0	2793	896.110974409616	2
0	2800	898.278752965501	0
0	2804	898.72478608496	0
0	2812	901.646768674486	1
0	2826	907.03579236823	1
0	2841	911.547514420582	0
0	2846	912.551057850009	1
0	2850	913.448689006498	1
0	2860	916.621239909901	0
0	2868	918.369810091796	1
0	2880	922.994205532592	0
0	2887	923.400169976753	1
0	2906	929.189791683805	2
0	2914	931.371242479653	0
0	2918	932.190446880413	0
0	2926	934.664340667193	1
0	2929	935.80434376374	0
0	2937	939.919126335648	0
0	2941	940.44920351589	1
0	2951	945.608156742294	1
0	2966	950.914560428238	1
0	2970	951.274937095818	1
0	2994	957.134431339101	2
0	3015	962.367328078951	2
0	3029	966.599138805757	1
0	3034	967.491233795182	0
0	3039	968.073180930688	1
0	3049	970.860159917734	0
0	3055	972.934903235988	0
0	3059	973.151467098854	1
0	3072	978.67266109772	1
0	3078	980.148905837677	1
0	3084	982.093800016329	0
0	3092	983.938819076167	1
0	3112	989.734706431394	2
0	3125	993.881464840728	1
0	3130	995.18666356313	2
0	3144	998.730643399058	0
0	3154	1001.086164204636	1
0	3160	1002.837008718284	0
0	3163	1003.30315638776	0
0	3168	1005.367571429465	1
0	3173	1006.793996886117	1
0	3174	1007.223947402671	0
0	3187	1012.699827937176	1
0	3202	1017.725739600602	1
0	3203	1018.03194188827	0
0	3207	1018.618343341863	0
0	3219	1023.719549443107	1
0	3235	1028.729437904199	1
0	3253	1034.309186667203	2
0	3258	1035.884827700095	0
0	3262	1037.157273510936	1
0	3274	1040.09445233643	1
0	3277	1041.052468824201	0
0	3280	1041.387177316355	0
0	3290	1045.198637053137	1
0	3299	1049.163994535339	0
0	3305	1050.694705385947	1
0	3321	1056.598213200922	1
0	3323	1057.024300680844	0
0	3331	1059.359231775742	0
0	3339	1062.337823709472	1
0	3340	1062.652111197472	0
0	3345	1065.624904714058	0
0	3350	1068.193105254787	1
0	3353	1069.990948972641	0
0	3360	1073.332762140314	1
0	3373	1079.046635108766	1
0	3385	1084.145588949787	1
0	3405	1089.462397523456	2
0	3426	1095.156026433454	2
0	3431	1096.381779099928	1
0	3446	1100.366044560214	2
0	3455	1102.676336266565	1
0	3466	1105.638155755354	2
0	3478	1109.241424719919	0
0	3486	1110.81446728576	1
0	3495	1113.258149890228	1
0	3497	1113.758340074679	0
0	3500	1114.30933876312	1
0	3508	1115.959762287559	1
0	3509	1116.053854825437	0
0	3527	1121.852394605754	1
0	3532	1123.502286802626	0
0	3543	1127.399083114695	1
0	3556	1131.136473262916	0
0	3558	1131.536068837858	0
0	3564	1132.938928692602	1
0	3570	1135.723158774897	0
0	3578	1138.029995485209	1
0	3590	1142.970432766481	0
0	3594	1143.306874142494	1
0	3610	1149.28021755931	1
0	3629	1154.532328061061	2
0	3643	1158.890382372774	0
0	3650	1160.297361956676	1
0	3670	1166.142338237026	2
0	3681	1169.63193134696	0
0	3683	1169.872069694567	1
0	3691	1171.724981169448	1
0	3714	1177.623022875515	2
0	3716	1178.122297343215	0
0	3720	1179.091196803727	1
0	3730	1183.475990427074	0
0	3734	1183.554992397082	1
0	3749	1189.340678948442	1
0	3764	1193.602929027052	1
0	3770	1194.855440827318	2
0	3773	1195.465096436326	0
0	3789	1200.769918547942	1
0	3809	1206.074375719529	2
0	3814	1207.771188007318	1
0	3821	1209.37604289851	0
0	3832	1212.007533332331	1
0	3834	1212.519212699843	0
0	3842	1215.466896869591	0
0	3849	1217.969359741777	1
0	3850	1218.555227993171	0
0	3857	1221.941704238997	1
0	3863	1223.410455413393	1
0	3870	1226.690634748548	0
0	3878	1229.296531764322	1
0	3892	1234.531294088808	1
0	3913	1239.878323528447	2
0	3932	1244.9341742699	2
0	3933	1245.122643869135	0
0	3945	1249.309239949796	1
0	3952	1250.362083076263	1
0	3960	1252.622061804634	0
0	3963	1253.612249997441	1
0	3973	1256.095160439607	1
0	3978	1257.868135988013	0
0	3982	1258.633910925358	0
0	3992	1261.313669491556	1
0	4001	1265.35067873343	0
0	4009	1266.926571127257	1
0	4010	1267.075080029198	0
0	4016	1269.934875548814	0
0	4022	1271.981741595312	1
0	4028	1275.162226148412	0
0	4034	1277.315989710621	1
0	4044	1282.69274887582	1
0	4060	1288.396188536423	1
0	4078	1293.722394458714	2
0	4080	1294.778641195732	0
0	4095	1298.805708029072	1
0	4105	1301.557459339844	1
0	4110	1302.993725487142	0
0	4118	1304.192144458412	1
0	4119	1305.093729926385	0
0	4124	1306.658909892777	0
0	4134	1310.188325538763	1
0	4151	1315.444883445275	1
0	4174	1321.36952623259	2
0	4178	1322.427818892638	0
0	4190	1327.046544249865	1
0	4196	1328.956516523959	0
0	4201	1331.151043614952	0
0	4207	1332.138627153585	1
0	4217	1336.276246992287	1
0	4221	1337.698982525149	0
0	4225	1337.762161457675	1
0	4235	1341.344175205795	0
0	4243	1343.761249412081	1
0	4256	1348.287632772695	0
0	4263	1349.515362109986	1
0	4267	1351.356598873501	0
0	4271	1353.29141351359	0
0	4276	1354.747371525734	1
0	4288	1360.407175153259	1
0	4293	1362.819731758904	0
0	4304	1366.238282282136	1
0	4305	1366.779946569816	0
0	4311	1368.882152231524	0
0	4317	1372.01794511941	1
0	4328	1377.681635804705	1
0	4335	1381.033286802468	0
0	4340	1382.81630744133	0
0	4342	1382.942602406719	0
0	4346	1383.548298158215	1
0	4354	1389.277354696763	1
0	4364	1395.024063654707	1
0	4379	1400.345251034011	1
0	4397	1405.650261385596	2
0	4400	1406.440010948453	0
0	4402	1406.545563281511	0
0	4415	1411.433217146198	1
0	4418	1412.766664516527	1
0	4429	1416.565723419652	1
0	4442	1419.682695450142	0
0	4451	1422.041029182492	1
0	4473	1427.80034791771	2
0	4480	1429.645492762441	1
0	4489	1431.774626289493	0
0	4494	1433.032858079762	1
0	4496	1433.383861541512	0
0	4511	1438.242028410776	1
0	4524	1442.802611243094	0
0	4530	1443.735145203067	1
0	4534	1444.964546726781	0
0	4538	1445.774805272696	0
0	4545	1447.872084292229	0
0	4550	1449.013966688883	1
0	4560	1454.801575876303	1
0	4566	1456.934229362288	0
0	4575	1460.584250597512	1
0	4590	1465.695021288931	1
0	4600	1469.723578899745	0
0	4609	1471.507471781918	1
0	4625	1476.166900039646	0
0	4631	1477.171935573449	1
0	4633	1478.106899649018	0
0	4651	1483.046201557615	1
0	4652	1483.68714163289	0
0	4666	1488.268175086235	1
0	4680	1492.035999551877	0
0	4685	1493.448242660142	1
0	4695	1496.344672154399	0
0	4698	1496.418960964768	0
0	4706	1498.671930930573	1
0	4709	1499.414051197231	0
0	4717	1503.486834482518	0
0	4721	1503.893728015707	1
0	4732	1509.892651600759	1
0	4750	1515.767945338968	1
0	4760	1519.094236681584	0
0	4763	1520.217111055967	0
0	4769	1520.979246621482	1
0	4786	1526.443350854792	1
0	4800	1530.795544018149	0
0	4803	1531.501516842398	0
0	4807	1531.783558734456	1
0	4813	1534.236128215209	0
0	4822	1537.509567458644	1
0	4825	1538.58874807169	0
0	4836	1542.801533871093	1
0	4850	1548.514387871134	1
0	4864	1553.402210137688	0
0	4869	1553.571469812184	1
0	4891	1559.268934536488	2
0	4907	1564.229181772441	0
0	4912	1564.939970394359	1
0	4925	1568.572620325368	0
0	4931	1570.331880052569	0
0	4937	1570.904356378359	1
0	4944	1573.519413958298	0
0	4953	1576.432354347077	1
0	4956	1577.539356892456	1
0	4968	1581.99737675278	1
0	4991	1587.65867365873	2
0	4993	1588.195456090845	0
0	4998	1590.197772532231	0
0	5007	1592.949300135016	1
0	5017	1597.079730252611	1
0	5023	1598.676116095619	1
0	5024	1598.955934846417	0
0	5041	1604.126454850655	1
0	5063	1609.935634386023	2
0	5067	1611.478038808445	0
0	5081	1615.509465458333	1
0	5092	1618.560087239484	0
0	5094	1619.188883388761	0
0	5096	1620.134954968464	1
0	5103	1621.412106510713	1
0	5117	1626.564616187006	1
0	5140	1632.097152214261	2
0	5159	1636.852347677454	0
0	5164	1637.755358447317	1
0	5166	1637.818677232131	0
0	5174	1640.75982932746	0
0	5182	1643.343264325052	1
0	5183	1644.002579841876	0
0	5193	1648.614818824917	1
0	5194	1649.002084221571	1
0	5210	1654.124890835952	1
0	5232	1659.286644899515	2
0	5240	1661.458846787686	1
0	5251	1664.315877950746	2
0	5253	1664.737498827505	0
0	5256	1665.090662501633	0
0	5267	1669.606194808842	1
0	5283	1674.715572918994	1
0	5298	1678.417080174895	1
0	5301	1678.950009410848	0
0	5307	1680.599401004958	0
0	5311	1680.672108047871	1
0	5328	1685.833225660022	1
0	5345	1690.561113148459	0
0	5349	1691.439893009953	0
0	5353	1691.485788306217	1
0	5362	1695.262989768987	0
0	5370	1696.8857984608	1
0	5371	1697.567102256111	0
0	5383	1701.893004808571	1
0	5392	1706.235581787882	0
0	5397	1707.113313793666	1
0	5402	1709.015885566706	0
0	5411	1712.576152245277	1
0	5413	1712.847411103659	0
0	5426	1717.932031978849	1
0	5436	1722.3403028571	0
0	5442	1723.377143320856	1
0	5451	1727.242096511061	0
0	5457	1729.09226274001	1
0	5468	1734.00831854506	0
0	5474	1735.023016583869	1
0	5487	1740.110628480553	1
0	5494	1742.374186469587	0
0	5503	1744.821736785347	0
0	5508	1745.453958275258	1
0	5523	1750.86811877484	1
0	5544	1756.076138314554	2
0	5563	1761.350701487852	2
0	5567	1762.829087363203	1
0	5573	1764.218489454006	0
0	5583	1766.864397182591	1
0	5598	1770.847507643393	0
0	5608	1772.355555154612	1
0	5623	1777.209125313786	1
0	5627	1777.714722313914	2
0	5645	1782.190891880074	0
0	5651	1783.047652194738	1
0	5673	1788.931463026903	2
0	5674	1788.957666777304	0
0	5676	1789.267299951634	0
0	5687	1793.956502996148	1
0	5693	1796.367678451231	1
0	5706	1799.406602284168	1
0	5713	1801.215697317961	1
0	5715	1801.87393446371	0
0	5726	1804.727248567152	1
0	5749	1810.22796032717	2
0	5750	1810.627643243871	0
0	5759	1813.655109196199	0
0	5766	1815.908234272148	1
0	5774	1819.439054326267	1
0	5780	1821.036848167652	1
0	5801	1826.675012140532	0
0	5805	1826.729024377182	1
0	5809	1828.48881240864	0
0	5816	1830.486228701075	0
0	5819	1831.708757246259	0
0	5824	1832.662279642416	1
0	5836	1837.964114095546	1
0	5841	1840.601716090921	0
0	5850	1843.600951283933	1
0	5862	1848.354071775215	0
0	5867	1849.014249755997	1
0	5873	1851.523493963056	0
0	5883	1854.810298257969	1
0	5888	1856.643912635157	0
0	5899	1860.569969222411	1
0	5907	1863.407276992099	0
0	5916	1866.374558325853	1
0	5934	1871.852661968671	1
0	5940	1873.882845218988	0
0	5953	1877.517901731651	1
0	5973	1883.330732347905	2
0	5975	1883.739016726958	0
0	5979	1885.030834386353	0
0	5988	1888.601368011204	1
0	6001	1893.144732007171	1
0	6006	1893.816919414788	1
0	6024	1899.236857030535	0
0	6029	1899.72327379556	1
0	6042	1902.851370411689	0
0	6051	1904.96511197602	1
0	6071	1910.139447095567	2
0	6084	1914.946376273639	1
0	6093	1916.050859877603	2
0	6102	1918.851226878115	0
0	6109	1921.378406526167	0
0	6113	1921.67730608163	1
0	6127	1926.69662353233	1
0	6138	1930.153598907981	0
0	6148	1932.586324971631	1
0	6169	1938.309126399919	2
0	6180	1940.938297911427	1
0	6187	1942.880774611492	1
0	6191	1943.343414954372	0
0	6196	1944.029841078441	1
0	6206	1946.137873507916	0
0	6210	1947.934198461236	0
0	6216	1949.617152624526	1
0	6231	1954.622002742249	1
0	6251	1959.848870872748	2
0	6252	1960.248436667725	1
0	6259	1961.598447268359	0
0	6263	1962.761348887226	0
0	6271	1965.773959039473	1
0	6272	1965.814673510145	0
0	6282	1970.905117276353	1
0	6297	1976.562414099924	1
0	6317	1982.551623125324	2
0	6321	1983.722070626217	1
0	6335	1986.974556416268	0
0	6341	1988.107470067214	1
0	6343	1988.869461594617	0
0	6359	1993.147558423221	1
0	6379	1998.564093306657	2
0	6380	1998.651102744736	0
0	6382	1998.823883924976	0
0	6393	2003.734410638452	1
0	6401	2007.155744970191	0
0	6409	2008.986215617039	1
0	6424	2014.327469352397	1
0	6445	2020.160277596439	2
0	6452	2022.228233344151	1
0	6460	2023.947124741155	1
0	6467	2025.459070551206	2
0	6489	2030.98395585478	2
0	6490	2031.226721544048	0
0	6496	2033.450879711884	0
0	6505	2036.878487728766	1
0	6515	2040.915845470618	1
0	6517	2041.393771431173	0
0	6523	2042.504666100952	1
0	6534	2047.021688664562	0
0	6540	2047.615819589698	1
0	6555	2052.798082823863	1
0	6557	2053.544385622136	1
0	6567	2056.758356385164	0
0	6574	2058.150010272858	1
0	6595	2063.403073807012	2
0	6600	2064.825671483643	0
0	6612	2069.12949831702	0
0	6616	2069.392287809167	1
0	6620	2071.01748972386	1
0	6623	2071.785729178341	0
0	6632	2075.312474438453	1
0	6639	2078.452255254844	0
0	6646	2080.738656015366	1
0	6647	2081.197853668475	0
0	6659	2086.280228098619	1
0	6675	2092.150533573234	1
0	6678	2092.996360121294	0
0	6697	2097.797454676123	1
0	6698	2098.486830458741	0
0	6705	2100.998772012882	0
0	6713	2103.131647343279	1
0	6717	2104.718404000857	0
0	6727	2108.301053874658	1
0	6742	2113.983291861133	1
0	6747	2115.071425386236	0
0	6760	2119.147873003499	1
0	6768	2120.896936928152	0
0	6773	2122.181804126824	0
0	6780	2124.378838946342	1
0	6787	2127.750604263505	0
0	6796	2129.997144181046	1
0	6798	2130.943443854339	0
0	6812	2135.54673993238	1
0	6826	2140.62078441202	0
0	6832	2141.035967979112	1
0	6849	2146.294472665756	1
0	6852	2147.505418754762	0
0	6857	2148.531709373577	0
0	6868	2152.255852714644	1
0	6878	2157.831453434772	0
0	6882	2158.075926035174	1
0	6884	2158.947683978358	0
0	6897	2163.702130006623	1
0	6916	2169.544772812162	1
0	6938	2175.029750955288	2
0	6949	2178.743751669762	0
0	6954	2180.058593963852	0
0	6959	2180.593447570919	1
0	6968	2184.889431008717	1
0	6975	2186.132394589015	1
0	6998	2191.719925805458	2
0	7013	2196.684470708245	0
0	7018	2197.606717944841	1
0	7043	2203.506565079789	2
0	7058	2208.419795002203	1
0	7062	2209.312622915951	0
0	7064	2209.32855705672	1
0	7068	2209.426314172565	1
0	7085	2214.347269656832	0
0	7089	2214.54698035144	1
0	7099	2216.769585527476	0
0	7111	2220.524360960813	1
0	7134	2226.341855663571	2
0	7152	2231.751592248909	2
0	7154	2231.995546448157	1
0	7160	2233.247658767616	1
0	7171	2236.614517982116	0
0	7177	2237.494331136344	1
0	7188	2240.514484524491	0
0	7193	2242.155193417794	0
0	7199	2243.376140480859	1
0	7216	2248.920743220949	1
0	7234	2254.627532733835	2
0	7242	2256.173308322667	1
0	7257	2259.740991133962	2
0	7269	2262.735017670782	0
0	7275	2264.849123951161	0
0	7280	2265.423328282776	1
0	7283	2266.587102512479	0
0	7293	2271.026110229547	1
0	7299	2273.087936969586	1
0	7312	2276.981729016405	1
0	7326	2280.604190389507	0
0	7334	2282.091122233307	1
0	7355	2287.819002586182	2
0	7361	2289.252401285218	1
0	7375	2292.923918197861	2
0	7386	2296.515164836889	0
0	7388	2296.692466408827	0
0	7391	2297.000153747848	1
0	7393	2297.890887575805	0
0	7398	2298.192093249176	1
0	7402	2301.049534931425	0
0	7407	2303.431614596861	1
0	7418	2308.905003527877	1
0	7432	2314.091483255149	1
0	7437	2315.339467763898	0
0	7440	2315.70063110115	0
0	7450	2319.710884531261	1
0	7466	2325.242938319454	1
0	7467	2325.844023839571	0
0	7483	2330.598473063204	1
0	7498	2335.321958452696	0
0	7505	2336.448757540434	1
0	7523	2341.459383937297	2
0	7524	2341.68186147418	0
0	7538	2347.036338083213	1
0	7546	2349.347754566116	1
0	7550	2349.956165079029	0
0	7552	2350.239339623834	0
0	7559	2352.338206846732	1
0	7565	2354.859476994257	0
0	7571	2357.33526081487	0
0	7576	2357.854864428285	1
0	7587	2362.912151519441	1
0	7600	2367.632451636716	0
0	7605	2368.43472215277	1
0	7611	2370.434066312737	0
0	7617	2373.298029114142	0
0	7621	2373.712979668983	1
0	7632	2379.018325100652	1
0	7645	2384.203423055238	0
0	7650	2384.742309402674	1
0	7666	2390.166605596896	1
0	7683	2395.723975351428	0
0	7687	2395.954885802464	1
0	7690	2397.28663176228	0
0	7701	2400.583744074101	0
0	7705	2401.175705112283	1
0	7717	2405.726346543872	0
0	7721	2406.300333935534	1
0	7737	2411.552780370227	1
0	7741	2412.958763046189	0
0	7747	2414.868156153244	0
0	7755	2417.106820576823	1
0	7770	2422.221488964743	1
0	7777	2424.691898241755	0
0	7786	2427.561535669374	0
0	7791	2427.891248154453	1
0	7808	2433.845582222565	1
0	7828	2439.195933702168	2
0	7837	2442.077705252566	0
0	7844	2444.512611633279	0
0	7849	2444.907794237136	1
0	7853	2446.627872141311	1
0	7859	2448.717499889666	0
0	7865	2450.032126886304	1
0	7876	2454.723070601583	0
0	7882	2455.706390049774	1
0	7889	2458.332152077928	0
0	7896	2461.144534200895	1
0	7912	2466.883380759274	1
0	7934	2472.657078563002	2
0	7949	2477.25485918857	0
0	7954	2477.841638407436	1
0	7976	2483.753275866386	2
0	7983	2485.727476152011	0
0	7986	2486.35521487065	1
0	7991	2488.593594452717	0
0	7996	2489.499061657813	1
0	8001	2491.2209593961	0
0	8007	2494.013707202742	0
0	8012	2494.736915659624	1
0	8015	2496.886008186264	1
0	8022	2499.819095111684	1
0	8037	2504.819490198045	1
0	8054	2509.868221250595	2
0	8074	2515.385148744564	2
0	8092	2520.768241060199	2
0	8099	2522.892907230996	1
0	8109	2525.565946648827	1
0	8114	2526.048319274792	2
0	8117	2526.649137734433	1
0	8138	2532.02818858507	2
0	8152	2535.826388528337	0
0	8159	2537.450387981254	1
0	8173	2541.172243799199	1
0	8182	2542.653850322356	2
0	8185	2543.234267522927	0
0	8199	2548.053780877264	1
0	8217	2552.831985434983	0
0	8221	2553.087615587748	1
0	8223	2553.687112866552	1
0	8235	2557.234064929886	1
0	8241	2558.404609279706	2
0	8251	2560.907164949923	0
0	8261	2564.224724938393	1
0	8271	2567.527817383292	0
0	8279	2569.803869496797	1
0	8281	2570.153973691515	1
0	8294	2574.082764207852	0
0	8302	2575.642829386749	1
0	8317	2580.532269306365	0
0	8324	2581.372240978059	1
0	8331	2583.622793720453	0
0	8340	2586.796827504876	1
0	8357	2591.356795180819	0
0	8362	2591.891819048206	1
0	8363	2592.143267187754	0
0	8382	2597.152758790644	1
0	8388	2599.298977929515	0
0	8400	2602.397091927471	1
0	8414	2607.018855700969	0
0	8421	2608.264277917797	1
0	8429	2610.442676200879	0
0	8438	2613.549498073988	1
0	8440	2614.211888598394	0
0	8455	2618.986029105259	1
0	8474	2624.879639731252	2
0	8485	2628.730122179841	0
0	8492	2630.122545593416	1
0	8495	2630.981264638947	0
0	8497	2631.048561887582	1
0	8513	2635.948356778126	1
0	8532	2641.733735671965	0
0	8537	2641.924564184153	1
0	8538	2642.089022419297	0
0	8553	2647.402603036722	1
0	8574	2652.724469249135	2
0	8579	2653.885434432069	0
0	8590	2658.439229837501	1
0	8594	2658.526319456285	1
0	8600	2659.829777788252	0
0	8615	2664.454527215099	1
0	8626	2668.091783946844	0
0	8631	2669.006406670552	0
0	8636	2670.285141477825	1
0	8641	2672.133431030553	0
0	8646	2674.908549617508	0
0	8648	2675.237473576443	0
0	8652	2675.308045553274	1
0	8659	2680.955076719399	1
0	8670	2686.386978886786	1
0	8687	2692.216564565894	1
0	8704	2697.806890631557	2
0	8715	2700.50324886257	0
0	8724	2702.898209323638	1
0	8726	2703.110623278652	0
0	8734	2705.808697095257	0
0	8737	2707.04732382402	1
0	8742	2708.67043322371	1
0	8749	2711.246294167356	0
0	8756	2713.929452204375	1
0	8774	2719.92577347811	1
0	8786	2723.327782865028	0
0	8793	2725.444704556953	0
0	8797	2725.459034360709	1
0	8804	2728.049819653617	0
0	8812	2731.38517559203	1
0	8815	2732.881571104281	0
0	8826	2737.346385498528	1
0	8833	2739.885758191926	0
0	8841	2742.666359128427	1
0	8844	2744.338844184061	0
0	8854	2748.591859449396	1
0	8860	2751.543940817118	0
0	8871	2754.247318681326	1
0	8882	2759.382733745614	0
0	8888	2759.817960716082	1
0	8893	2761.673250811521	0
0	8902	2765.56902527576	1
0	8907	2767.887571794325	0
0	8917	2771.313510107805	1
0	8932	2776.677864662369	1
0	8942	2779.72805691289	0
0	8951	2782.569291008867	1
0	8952	2782.748659353001	0
0	8973	2788.267675961133	1
0	8994	2794.074987662954	2
0	8997	2794.52082051907	0
0	9006	2798.843444793717	0
0	9012	2799.729351437183	1
0	9017	2802.30922440998	0
0	9019	2803.585459449211	0
0	9021	2803.860156910376	1
0	9025	2805.705691364126	1
0	9038	2811.68921960308	1
0	9052	2816.968777628613	1
0	9071	2822.665148979283	2
0	9078	2824.360444170538	1
0	9089	2827.945388175429	0
0	9094	2828.504149655576	1
0	9112	2834.043848107451	0
0	9116	2834.057694664688	1
0	9123	2836.729628111582	0
0	9131	2839.078482544865	0
0	9136	2839.76251185429	1
0	9147	2844.032023278179	0
0	9153	2845.212265899635	1
0	9169	2850.220458967376	1
0	9189	2855.273836967067	2
0	9209	2860.634196238822	2
0	9218	2862.716120013147	1
0	9225	2864.557156952677	0
0	9232	2865.93724991637	1
0	9235	2867.168123615555	0
0	9250	2871.348487227454	1
0	9252	2871.634348214371	1
0	9273	2877.145852127343	2
0	9289	2882.543277312763	1
0	9293	2882.63675009296	2
0	9311	2887.856443162306	2
0	9331	2893.433618575332	2
0	9332	2894.008178486486	1
0	9343	2897.350492861233	1
0	9351	2899.405915406763	2
0	9352	2899.416775216114	1
0	9362	2901.647177443139	0
0	9372	2904.733523323198	1
0	9376	2905.435273655336	0
0	9378	2905.841358139877	0
0	9389	2910.38720080489	1
0	9391	2911.769451422495	1
0	9405	2916.378826463592	1
0	9415	2919.419743087256	0
0	9417	2920.448378494468	0
0	9423	2922.089825916101	1
0	9427	2924.0009333865	0
0	9436	2928.05449279607	1
0	9449	2933.157230897571	1
0	9469	2939.145587213102	2
0	9488	2945.076046339234	2
0	9503	2949.277172880593	0
0	9511	2950.864758540408	1
0	9513	2951.313150850939	1
0	9517	2952.637281931352	1
0	9533	2956.417402422984	2
0	9557	2962.093589339402	2
0	9562	2963.66949094145	1
0	9570	2966.408986271125	0
0	9577	2968.021761206441	1
0	9589	2971.37983631133	0
0	9596	2973.274577141969	1
0	9616	2978.796662862409	2
0	9621	2979.632624532678	1
0	9624	2980.851894600432	0
0	9634	2984.090011374788	1
0	9651	2989.64727850037	0
0	9657	2990.028257329944	1
0	9674	2994.921321836646	0
0	9678	2995.034306207202	1
0	9687	2998.214523707403	0
0	9697	3000.548460836984	1
0	9705	3003.331331395773	1
0	9710	3004.532290318978	0
0	9720	3006.241482651789	1
0	9728	3008.315449016863	0
0	9731	3008.94941836595	0
0	9739	3012.195181754647	1
0	9754	3017.549342301205	1
0	9774	3022.669202452289	2
0	9779	3024.286663888601	0
0	9785	3026.300042120038	1
0	9794	3028.631558653662	1
0	9804	3031.048226714248	0
0	9816	3034.341878831849	1
0	9817	3034.635559341167	0
0	9824	3037.401780319397	0
0	9832	3040.247562013796	1
0	9848	3045.478075139454	1
0	9866	3050.568408735792	2
0	9872	3052.399713043702	1
0	9877	3053.762800306662	0