version 3
run General-14-20240430-20:30:43-5483
attr configname General
attr datetime 20240430-20:30:43
attr datetimef 20240430-203043
attr experiment General
attr inifile omnetpp.ini
attr iterationvars $0=false
attr iterationvarsd false
attr iterationvarsf false-
attr measurement $0=false
attr network Supermarket
attr processid 5483
attr repetition 4
attr replication #4
attr resultdir results
attr runnumber 14
attr seedset 14
config network Supermarket
config repeat 10
config num-rngs 10
config **.use_random_strategy false

vector 0 Supermarket queueSizeOverTime:vector ETV
attr recordingmode vector
attr source updateQueue
attr title queueSizeOverTime
vector 1 Supermarket customerWaitingTime:vector ETV
attr interpolationmode none
attr recordingmode vector
attr source customerFinished
attr title "cust waiting time"
0	7	5.283041951479	1
0	13	10.465849078027	1
0	25	16.403117370093	1
0	29	18.158922391479	0
0	40	21.855952829355	1
0	43	23.060972828301	0
0	56	27.376334144733	1
0	67	31.880307601879	0
0	75	33.291838553966	1
0	88	38.506279936991	1
0	97	41.501061865825	0
0	99	41.833022599108	0
0	105	43.822779108071	1
0	121	49.310688372701	1
0	130	51.643528185202	0
0	142	54.80282249418	1
0	162	59.928235704544	2
0	167	61.802938706241	1
0	184	65.832001561764	2
0	190	67.282184614217	0
0	199	70.158175323974	0
0	205	71.505407543387	1
0	217	75.938990198657	0
0	223	77.421356540639	1
0	234	81.250570264412	1
0	241	83.040382050211	1
0	251	86.629161393619	0
0	256	88.070643048734	0
0	261	88.624463091605	1
0	263	89.286299440311	0
0	274	93.849524713355	1
0	284	98.208304976928	0
0	286	98.511475091219	0
0	291	98.968993172283	1
0	303	104.528043532046	1
0	305	105.664752675337	0
0	309	106.790521780845	0
0	317	109.910535149044	1
0	324	114.878656768475	0
0	328	115.700430941536	1
0	334	119.107596514863	0
0	341	121.250081864652	1
0	352	126.913084828761	1
0	356	128.682690913558	0
0	365	132.119067337364	1
0	372	136.211293970468	0
0	380	137.627847126219	1
0	398	143.528653195593	1
0	405	145.754370482172	0
0	415	148.692600920097	1
0	434	153.928597587626	2
0	439	155.088778855976	0
0	442	155.435256636351	0
0	445	156.485392236967	1
0	453	159.342141466448	1
0	468	164.653751211008	1
0	469	165.381808032628	0
0	483	169.162949543215	0
0	488	170.394648869522	1
0	501	175.538636916084	1
0	524	181.076748650521	2
0	545	186.697706537554	2
0	550	188.10094865877	1
0	555	189.268609602471	0
0	565	192.249660195084	1
0	576	195.935131475096	1
0	587	197.745700464816	2
0	590	198.532023485399	0
0	593	199.35614544747	0
0	603	203.320937165757	1
0	617	208.614887016592	1
0	630	212.875781583483	0
0	633	213.839951472008	0
0	638	214.315881567774	1
0	654	219.836602239636	1
0	665	223.161984366015	1
0	676	225.206793619086	2
0	686	228.268540058516	1
0	697	231.15898667043	2
0	698	231.392459177178	0
0	705	233.986164577423	0
0	714	236.22305390262	1
0	732	241.816018333891	1
0	749	246.959962121211	2
0	751	247.483328879811	0
0	756	248.693658884381	0
0	763	251.579336168477	1
0	767	252.435579856392	1
0	775	255.479326237923	1
0	784	257.988693294115	1
0	786	258.38089230121	0
0	799	263.124190331203	1
0	805	265.40190197283	0
0	817	268.9681600139	1
0	821	270.737960351863	0
0	830	273.876656260922	0
0	834	274.438254981068	1
0	836	274.700657522422	0
0	844	279.688167982617	0
0	849	280.421319908927	1
0	858	285.374818069392	0
0	862	285.597131267422	1
0	872	290.808527661719	1
0	888	296.021784696261	1
0	896	298.661142183117	0
0	905	301.598777257254	0
0	909	301.697614674222	1
0	916	304.037108668708	0
0	921	306.07105717575	0
0	926	307.410461742197	1
0	937	312.923341811401	1
0	952	318.751074255443	1
0	964	322.569692337186	0
0	973	323.893834972055	1
0	977	325.132324708042	0
0	984	327.129142196382	0
0	990	329.161427969811	1
0	1007	334.398939164122	1
0	1030	340.12320758053	2
0	1041	343.851610682786	0
0	1050	345.379185599972	1
0	1054	346.812313107772	0
0	1057	347.673408190137	1
0	1062	348.796810466097	0
0	1068	350.750339504097	1
0	1070	351.035512123721	0
0	1075	353.521005475545	0
0	1081	356.710074598201	1
0	1091	362.013712276237	1
0	1095	363.366867398026	0
0	1105	367.609014247309	1
0	1121	372.996581614248	1
0	1138	378.297651357132	0
0	1142	378.557606249813	1
0	1157	383.22926369577	0
0	1160	383.602857468064	0
0	1164	383.789848556275	1
0	1165	383.983574296578	0
0	1169	385.573985834602	0
0	1176	389.187125324969	1
0	1186	394.406310939462	1
0	1201	399.829023277153	1
0	1221	405.425121807026	2
0	1237	410.526939393485	2
0	1239	410.822475419498	0
0	1241	411.1060049606	1
0	1246	412.779237233916	0
0	1249	414.256222158086	0
0	1254	416.162320698842	1
0	1261	420.713247188481	0
0	1263	421.411150170254	1
0	1267	421.497401702448	1
0	1270	423.87025189609	0
0	1277	427.33773327898	1
0	1288	432.37178178434	1
0	1304	438.114094376329	1
0	1326	443.352201154919	2
0	1341	447.23762759403	0
0	1348	448.944435683543	1
0	1349	449.076700342933	1
0	1364	453.918911906076	0
0	1371	454.606217405524	1
0	1372	454.976396122944	0
0	1374	455.079012634696	0
0	1386	459.897991268894	1
0	1394	462.693254141951	0
0	1403	465.730370872187	1
0	1413	469.5848505327	0
0	1421	471.707128819775	1
0	1430	476.390778369851	0
0	1434	476.968821677843	1
0	1445	482.071102675516	0
0	1450	482.136010108281	1
0	1466	487.761782569809	1
0	1493	493.648578719234	2
0	1505	498.103547040024	1
0	1513	499.107891553312	2
0	1527	503.541081410135	0
0	1531	504.157939681781	1
0	1535	505.036724271603	1
0	1546	508.763190075986	0
0	1553	509.442483798831	1
0	1572	514.879295776596	2
0	1577	515.925190469248	0
0	1582	517.659725151258	1
0	1591	520.690223383017	1
0	1614	526.143128190654	2
0	1620	528.146104014708	0
0	1632	531.165100062963	1
0	1634	531.923921445731	0
0	1650	536.735649548702	1
0	1661	540.235475296387	1
0	1672	542.682889690854	2
0	1695	548.522159672108	2
0	1700	550.57371272554	1
0	1702	550.889391846836	0
0	1708	552.982173411757	0
0	1714	554.451622081221	1
0	1729	559.678425300167	1
0	1731	560.256494203698	1
0	1750	564.958729385165	2
0	1755	566.274353966115	0
0	1769	570.745679095387	1
0	1789	576.309714010683	2
0	1798	579.44320578	0
0	1801	580.257312685832	0
0	1803	580.334903439274	1
0	1808	581.570138269336	1
0	1809	581.643624067305	1
0	1815	584.614149130765	0
0	1823	586.776542209786	1
0	1839	592.536291961324	1
0	1840	593.037083305533	0
0	1856	597.849121679783	1
0	1857	598.257025775033	0
0	1873	603.528518773381	1
0	1884	607.84427900263	0
0	1891	609.251769009278	1
0	1893	609.628592020715	0
0	1908	614.535637853666	1
0	1923	619.260974721749	0
0	1930	620.230853185755	1
0	1943	624.705321161891	0
0	1946	625.16074815986	0
0	1950	625.277375084813	1
0	1965	631.092693713726	0
0	1969	631.11803763546	1
0	1974	634.402979646693	0
0	1982	636.470734354341	1
0	1987	638.638053903007	0
0	1995	641.549033306771	1
0	2009	646.490556862438	0
0	2015	647.533337049651	1
0	2020	650.073099825996	0
0	2028	652.573835955932	1
0	2032	654.491531146806	0
0	2043	658.393287654733	1
0	2059	663.627774632303	1
0	2067	666.959171067575	0
0	2071	667.47704815201	0
0	2076	668.844219102757	1
0	2088	673.634970054729	0
0	2092	674.078677181154	1
0	2109	679.343411376466	1
0	2127	684.376730483723	2
0	2141	688.327476649781	0
0	2144	688.649660120718	1
0	2151	690.221247616223	1
0	2152	690.227877528523	0
0	2154	690.644556549728	0
0	2161	693.962173219536	0
0	2166	695.365361378993	1
0	2167	695.977390200131	0
0	2177	700.755807124776	1
0	2179	701.658698931571	0
0	2184	705.264257907052	0
0	2188	706.712699786992	1
0	2194	711.822900496888	1
0	2203	716.790555167476	0
0	2207	716.924200257984	1
0	2218	722.743879740591	1
0	2224	725.387446307112	0
0	2233	728.427685912465	1
0	2235	729.449655355419	0
0	2246	733.673058494459	1
0	2250	734.901233681943	0
0	2261	739.343157410854	1
0	2274	744.614523056196	1
0	2287	748.645959596381	0
0	2293	749.648376187775	1
0	2297	750.86724061391	0
0	2313	755.289287427906	1
0	2328	759.766533799934	0
0	2337	761.188140164595	1
0	2340	762.872381984605	0
0	2352	766.683714926941	1
0	2356	767.834500450293	0
0	2360	768.796174171499	0
0	2368	771.913933838019	0
0	2372	772.650838574627	1
0	2383	777.697489842539	1
0	2389	780.943784781498	0
0	2391	781.276062372257	0
0	2397	783.42324564862	1
0	2409	789.070267946924	1
0	2417	792.119581332197	0
0	2424	794.662152605363	1
0	2440	800.374580777481	0
0	2444	800.572775870095	1
0	2451	803.798762388876	0
0	2459	806.465630587189	1
0	2468	810.356112890758	0
0	2474	812.321520064723	1
0	2477	813.361602048971	0
0	2479	813.990061392192	0
0	2486	817.706456730606	1
0	2498	823.328346612861	1
0	2506	826.550030170588	0
0	2514	828.747336088677	1
0	2519	830.589382307601	0
0	2524	833.731552752432	0
0	2529	833.971284500321	1
0	2540	839.403578793395	1
0	2556	845.116758066928	0
0	2561	845.376611650221	1
0	2577	850.620263272196	1
0	2596	855.860871908719	2
0	2609	859.296235003273	0
0	2618	861.027227506971	1
0	2620	862.108054141859	0
0	2622	862.234648835842	0
0	2633	866.640307689317	1
0	2649	872.212393895256	1
0	2661	876.062655025393	0
0	2664	876.37706365436	1
0	2670	877.7621500995	1
0	2691	883.518032538936	2
0	2698	885.583901105099	0
0	2712	889.218882812884	1
0	2722	892.988378719539	1
0	2732	894.977499958359	2
0	2744	898.860947909647	0
0	2753	900.909844189881	1
0	2770	905.927004828699	0
0	2777	906.600524934706	1
0	2790	911.150821242712	0
0	2792	911.268214999929	0
0	2797	911.686015986836	1
0	2812	916.945736091117	1
0	2819	918.898929617596	1
0	2834	922.40088540525	2
0	2853	927.420752434291	2
0	2865	930.435033591926	1
0	2873	933.110783036448	0
0	2878	933.126913955899	1
0	2897	938.561054727061	2
0	2916	943.609204317677	0
0	2920	944.148476128465	1
0	2930	947.727409353824	1
0	2935	949.074927620934	1
0	2937	949.117603953574	0
0	2942	949.379993563284	1
0	2943	949.802918340312	0
0	2959	955.175241756019	1
0	2961	956.015049667563	0
0	2977	960.842902269213	1
0	2997	966.048900923225	2
0	3005	968.760459847748	0
0	3016	971.693181637441	1
0	3018	972.420731857064	0
0	3027	975.844696512093	1
0	3035	977.3784455657	1
0	3037	978.146205852041	0
0	3051	982.71522332984	1
0	3073	988.560154070146	2
0	3074	988.64799400908	0
0	3090	993.944171778624	1
0	3092	994.736383395963	1
0	3104	998.315401425696	0
0	3108	999.591888644033	0
0	3112	999.894359353463	1
0	3125	1004.685747748009	0
0	3131	1005.864811940583	1
0	3141	1010.195542005006	0
0	3147	1011.536304957465	1
0	3159	1016.888331640862	0
0	3163	1017.099114764713	1
0	3182	1023.048190331551	1
0	3201	1028.13639045949	2
0	3204	1028.921307047478	1
0	3225	1033.882796679855	2
0	3227	1034.729092003546	0
0	3229	1034.939336536917	0
0	3240	1039.456833912757	1
0	3257	1045.040071828522	1
0	3279	1050.689686611293	2
0	3285	1052.32424149022	0
0	3292	1054.358871919221	1
0	3294	1054.83018688159	1
0	3301	1056.061316554899	1
0	3309	1059.41339191026	0
0	3311	1059.530899256471	0
0	3317	1061.143144266446	1
0	3332	1066.395216781645	1
0	3339	1068.782349723971	0
0	3346	1071.584609244833	0
0	3350	1072.111506863263	1
0	3364	1077.370374075834	1
0	3383	1082.591775306266	2
0	3405	1088.20488502737	2
0	3418	1092.149006742867	1
0	3428	1094.121201056753	2
0	3435	1096.108660763711	1
0	3440	1097.089839490362	0
0	3449	1099.579981130081	1
0	3459	1102.783219632342	1
0	3472	1105.4665507304	2
0	3473	1105.766707994275	0
0	3488	1110.22493116965	0
0	3495	1111.248092603635	1
0	3508	1116.052265589241	1
0	3512	1116.392677338792	1
0	3525	1120.901039564514	0
0	3530	1121.499143799765	1
0	3538	1123.816884517901	0
0	3550	1127.273949719731	1
0	3556	1129.719904726253	0
0	3562	1131.550202613228	0
0	3568	1132.460458845131	1
0	3578	1136.56108805898	0
0	3585	1138.283666379748	1
0	3601	1144.258555890758	1
0	3607	1146.056970013187	0
0	3610	1146.866147906636	0
0	3617	1149.547954633831	1
0	3633	1155.271382803795	1
0	3651	1160.808211644412	2
0	3655	1161.479997243847	0
0	3664	1165.173425482119	0
0	3669	1166.564227649475	1
0	3673	1168.15714812849	1
0	3685	1172.439032465917	1
0	3703	1177.491082176565	2
0	3725	1183.357067114905	2
0	3740	1188.179037037536	1
0	3747	1189.011820378246	2
0	3748	1189.038562367902	0
0	3750	1189.788373959016	0
0	3757	1193.032815322741	1
0	3762	1194.308173588708	1
0	3769	1197.476499768086	0
0	3772	1198.69193945301	0
0	3777	1199.668904905904	1
0	3788	1204.824471219441	1
0	3789	1205.233493657431	1
0	3791	1205.851277999228	0
0	3797	1208.163853937526	0
0	3803	1210.64055798156	1
0	3813	1216.06700708391	1
0	3828	1221.358317669014	1
0	3834	1222.89763506688	0
0	3837	1223.570418400106	0
0	3846	1226.70597966737	1
0	3861	1231.890915985451	1
0	3863	1232.345265409208	0
0	3872	1236.150384200966	0
0	3879	1237.828264345181	1
0	3880	1238.460509369614	0
0	3886	1241.865622248849	0
0	3891	1243.562208332819	1
0	3897	1247.73332860926	0
0	3901	1248.926155783468	1
0	3913	1254.168498790589	1
0	3930	1259.850981499533	1
0	3951	1265.228767801541	2
0	3959	1267.354431810207	1
0	3964	1268.86948588793	0
0	3968	1270.428275567013	0
0	3972	1270.79746441543	1
0	3974	1271.22998885985	0
0	3985	1276.511024450184	1
0	3988	1277.89416675875	0
0	3993	1280.5495209957	0
0	3997	1282.054491531336	1
0	4009	1287.812420931644	1
0	4022	1293.073086812626	1
0	4031	1295.900888745206	0
0	4041	1298.843288012547	1
0	4043	1299.359107518683	0
0	4058	1304.252676011296	1
0	4070	1308.195521068759	0
0	4079	1309.788917048369	1
0	4088	1312.564961566824	0
0	4095	1315.007817539736	0
0	4099	1315.040717995027	1
0	4112	1320.508778224001	1
0	4118	1322.04340503621	0
0	4123	1323.45922155131	0
0	4130	1325.725438435795	1
0	4135	1327.986890612985	0
0	4140	1330.669221181656	0
0	4144	1331.63133152877	1
0	4150	1336.036803504452	0
0	4156	1337.190617914777	1
0	4167	1342.871754708932	1
0	4180	1348.642119632102	1
0	4190	1351.750213517574	0
0	4199	1353.930056414799	1
0	4217	1359.054391200421	2
0	4224	1360.999600264476	0
0	4232	1363.73096076015	1
0	4238	1364.993315156549	1
0	4255	1369.885178471215	0
0	4261	1370.786729412153	1
0	4282	1376.205070131458	2
0	4294	1380.34846328525	0
0	4299	1381.51707588532	1
0	4300	1381.581723187352	1
0	4312	1384.839598375838	0
0	4322	1386.56390808709	1
0	4327	1388.51483959693	0
0	4332	1390.520173967001	0
0	4339	1392.4736022742	1
0	4348	1396.595295330627	0
0	4350	1396.962083885796	0
0	4354	1397.555636115838	1
0	4367	1403.342298040399	1
0	4386	1409.22354289121	1
0	4388	1409.733803613694	0
0	4405	1415.156815770548	1
0	4409	1416.051711522044	0
0	4425	1421.120315543376	1
0	4435	1423.919560406823	0
0	4439	1425.205868063378	0
0	4441	1425.627973189579	0
0	4443	1426.205359183367	0
0	4447	1426.757611609763	1
0	4455	1432.646169735818	1
0	4458	1435.153218771564	0
0	4464	1437.816377679818	1
0	4466	1439.090404388961	0
0	4473	1443.661800695817	1
0	4486	1449.590573093156	1
0	4491	1451.735994473332	0
0	4500	1454.61468863301	1
0	4514	1459.830031706253	1
0	4516	1460.251634890215	0
0	4530	1465.655094559537	1
0	4549	1470.944768713088	2
0	4568	1476.130945468321	2
0	4587	1481.413776017958	2
0	4589	1482.057694207644	1
0	4591	1482.334680836764	1
0	4593	1482.545710680076	0
0	4607	1486.488330728374	1
0	4629	1492.245138345751	2
0	4634	1493.389675613842	1
0	4650	1498.142345885047	2
0	4652	1499.172491327858	0
0	4656	1499.843372827627	1
0	4669	1503.492280715843	1
0	4677	1506.433670040454	0
0	4688	1509.490604626945	1
0	4708	1514.880749949253	2
0	4728	1520.076390726258	2
0	4748	1525.517474622232	2
0	4759	1528.853789904035	1
0	4762	1529.618220177829	1
0	4770	1530.78814073489	2
0	4777	1533.094055382767	1
0	4790	1536.368968451162	2
0	4796	1537.557849162023	1
0	4816	1542.253394279628	2
0	4828	1545.121352077107	1
0	4831	1545.63464819197	0
0	4835	1546.800539948162	1
0	4840	1547.687586639541	1
0	4850	1549.630043548764	0
0	4854	1551.260810885459	0
0	4860	1553.056793693452	1
0	4869	1556.297239597536	1
0	4872	1557.48140439845	0
0	4874	1557.514044782379	0
0	4879	1558.628653195686	1
0	4892	1564.311115438351	1
0	4893	1564.689451796234	0
0	4905	1569.470382479019	1
0	4909	1571.97970798856	0
0	4911	1572.135999603662	0
0	4917	1575.470018215011	1
0	4929	1581.21986555634	1
0	4935	1583.52606565121	0
0	4943	1586.662866136757	1
0	4945	1587.153708605447	0
0	4958	1592.162981841247	1
0	4974	1598.05497223651	1
0	4980	1599.659589857444	0
0	4987	1602.784013409052	0
0	4993	1603.76894773636	1
0	5009	1609.052119652275	1
0	5028	1614.881521018688	2
0	5048	1620.275263967924	2
0	5053	1621.082094475977	1
0	5064	1624.523072217126	1
0	5072	1625.825138505316	2
0	5074	1626.346197734818	0
0	5077	1627.001499710487	0
0	5088	1631.806008223212	1
0	5096	1635.243087798592	1
0	5103	1637.138041687431	1
0	5125	1642.774681239156	2
0	5133	1645.019813585911	0
0	5137	1645.853391664103	0
0	5144	1648.421093695098	1
0	5149	1650.449650670286	1
0	5160	1653.98930718773	1
0	5165	1655.684014962986	0
0	5179	1659.847999702207	1
0	5191	1663.840685621834	0
0	5196	1665.539902755175	0
0	5200	1665.759685892611	1
0	5218	1671.615698670735	1
0	5237	1677.010564109077	2
0	5244	1679.16826849757	1
0	5251	1680.930835637263	0
0	5260	1682.223095309687	1
0	5265	1683.970492351101	0
0	5279	1687.936580385779	1
0	5300	1693.807527468306	2
0	5310	1697.065285174061	1
0	5312	1697.556493874989	0
0	5319	1699.38530849421	0
0	5323	1699.538661900674	1
0	5338	1704.88350699027	1
0	5346	1707.278411607491	0
0	5357	1710.262031640857	1
0	5368	1714.082906462601	0
0	5378	1715.882161283632	1
0	5399	1721.58793026884	2
0	5416	1726.592612488427	2
0	5426	1730.161503344309	0
0	5435	1731.660308076533	1
0	5441	1733.90613132983	1
0	5447	1735.571888347855	0
0	5454	1737.243909629759	1
0	5465	1740.579531390916	1
0	5474	1742.452058795838	2
0	5485	1744.806855474483	0
0	5496	1747.711070568998	1
0	5517	1753.111693114274	2
0	5532	1758.052601742791	1
0	5537	1758.310081723378	2
0	5545	1761.014465106649	0
0	5549	1762.131128214065	1
0	5556	1763.523795326938	1
0	5574	1768.697414435213	2
0	5580	1770.502205596656	0
0	5587	1772.494637549038	1
0	5593	1773.778593032388	1
0	5600	1775.462147353334	0
0	5613	1779.2412109836	1
0	5623	1782.454132448414	0
0	5631	1784.363043012796	1
0	5646	1788.51062485564	1
0	5652	1789.72781346587	0
0	5657	1789.892573056277	1
0	5676	1794.519441635466	0
0	5682	1795.133994070813	1
0	5686	1796.431148570032	0
0	5695	1800.061857499531	0
0	5699	1800.194769157795	1
0	5705	1802.924622314167	0
0	5713	1805.606037554331	1
0	5724	1810.05117442226	0
0	5730	1811.348360110074	1
0	5747	1817.272601990495	1
0	5749	1817.74974590447	0
0	5767	1823.202411573846	1
0	5770	1824.50606407365	0
0	5773	1825.436295066146	0
0	5775	1825.649061671226	0
0	5781	1828.416730970144	1
0	5792	1834.288181053474	1
0	5805	1839.338690436793	0
0	5809	1839.871238472871	1
0	5826	1845.727018720004	1
0	5840	1849.7359185128	0
0	5842	1849.856795973028	0
0	5848	1851.298379810759	1
0	5853	1853.847087194211	0
0	5862	1856.884252046234	1
0	5871	1860.596689041938	0
0	5878	1862.451463557313	1
0	5892	1868.009169246767	1
0	5912	1873.855276114771	2
0	5924	1877.235065095824	0
0	5934	1879.352088119134	1
0	5950	1884.53941074421	0
0	5955	1884.839516211299	1
0	5959	1885.971610782665	0
0	5971	1890.33361366391	1
0	5980	1892.973135871112	0
0	5982	1893.153600696125	1
0	5992	1895.912550403036	1
0	5993	1896.053554092648	0
0	6009	1901.089994650332	1
0	6031	1906.77505290089	2
0	6038	1908.677016853817	0
0	6049	1912.220293878343	1
0	6051	1912.477415067726	0
0	6054	1913.298950123484	1
0	6068	1917.661156981716	1
0	6070	1918.175593978608	0
0	6078	1920.458818003999	0
0	6087	1923.215141671941	1
0	6103	1928.848315571666	1
0	6110	1931.48814073589	0
0	6112	1931.616234260142	0
0	6120	1933.91924537788	1
0	6128	1938.474850780328	0
0	6133	1939.253452953881	1
0	6150	1944.773146409773	1
0	6157	1946.792064568725	0
0	6164	1948.288740456684	0
0	6170	1950.271971382432	1
0	6188	1956.063825543968	1
0	6194	1957.613799429497	0
0	6207	1961.209817707071	1
0	6225	1966.61155848135	2
0	6226	1967.155311254901	1
0	6236	1969.907846210639	0
0	6239	1970.690889366902	0
0	6245	1972.482798811512	1
0	6246	1972.8372233347	0
0	6255	1976.905921167925	0
0	6259	1977.676774301797	1
0	6266	1982.021324224186	0
0	6271	1983.562675563151	1
0	6284	1989.294431490123	1
0	6303	1995.2372777916	1
0	6315	1999.167936130426	0
0	6320	2000.700150311689	0
0	6324	2000.897994954835	1
0	6329	2002.858046244012	0
0	6340	2006.684002167543	1
0	6358	2012.66002791072	1
0	6374	2017.928788909686	0
0	6379	2018.455518692264	1
0	6391	2022.322794645789	0
0	6398	2024.234019578665	1
0	6403	2025.785152870344	0
0	6414	2029.306604907498	0
0	6418	2029.632756884906	1
0	6419	2030.287374295294	0
0	6430	2034.817199533803	1
0	6445	2040.190515951484	1
0	6446	2040.337911957873	0
0	6461	2045.970759414135	0
0	6466	2046.159162333699	1
0	6483	2051.622057329163	1
0	6494	2054.559984906923	0
0	6504	2056.702894191954	1
0	6524	2062.340904399518	2
0	6541	2067.602354723493	2
0	6556	2072.384868086432	0
0	6561	2072.950693545163	1
0	6567	2074.564169631222	1
0	6570	2075.287634875623	1
0	6581	2078.037996883968	2
0	6585	2079.707150444037	0
0	6587	2079.861342238844	0
0	6598	2083.663916062096	1
0	6599	2083.801025231485	1
0	6617	2089.418764536267	1
0	6638	2094.663018138612	2
0	6643	2095.7353691553	1
0	6646	2096.463489881599	0
0	6654	2099.532252333009	0
0	6659	2099.954463290049	1
0	6666	2103.075839163385	0
0	6674	2105.764491439795	1
0	6679	2107.807304222949	0
0	6683	2109.897498452335	0
0	6688	2111.315970773108	1
0	6700	2116.835679149486	1
0	6715	2122.155144900547	1
0	6728	2126.302201909827	0
0	6735	2127.887855833627	1
0	6738	2128.7306864385	0
0	6742	2129.780989689866	0
0	6748	2133.678977755478	0
0	6752	2133.730560145572	1
0	6762	2138.747706355293	1
0	6766	2140.320040407356	0
0	6776	2144.209834055741	1
0	6792	2149.40848226915	1
0	6805	2153.336121916187	0
0	6811	2154.393375779036	0
0	6816	2155.131156979593	1
0	6826	2159.230086033813	0
0	6832	2160.860870528965	1
0	6843	2165.705455784452	0
0	6847	2165.871623934013	1
0	6852	2167.872506464942	0
0	6854	2168.209540442446	0
0	6860	2171.353255423018	1
0	6863	2172.674175379913	0
0	6871	2177.326765771722	1
0	6883	2182.682827610755	1
0	6897	2188.265015322249	1
0	6913	2192.586716892079	0
0	6920	2193.86427456839	1
0	6929	2196.569994460442	0
0	6939	2199.071725235553	1
0	6959	2204.653292582137	2
0	6964	2205.934641485685	0
0	6972	2208.560903390402	1
0	6979	2210.345353419426	1
0	7000	2215.473166365408	2
0	7017	2220.786353316622	2
0	7034	2225.326584061374	1
0	7041	2226.319691881303	2
0	7044	2226.724159387872	0
0	7061	2231.541652084327	1
0	7069	2234.446186971732	1
0	7072	2235.085964125697	0
0	7080	2237.263294159666	1
0	7086	2239.205533687724	1
0	7099	2242.512821988201	2
0	7120	2247.664653143844	2
0	7127	2249.986080093773	0
0	7135	2252.92479500675	0
0	7141	2253.601435318122	1
0	7142	2253.625808808953	1
0	7152	2256.952336666172	1
0	7159	2258.603121192426	1
0	7179	2264.209196833194	2
0	7181	2265.573843733523	0
0	7194	2269.438825076212	1
0	7215	2275.250738533911	2
0	7236	2280.960916656767	2
0	7244	2283.422005753146	1
0	7246	2283.742604146595	1
0	7252	2285.72877775307	1
0	7261	2286.754237794782	2
0	7265	2287.770532090216	0
0	7271	2289.405800611592	1
0	7279	2291.800070919096	1
0	7298	2296.751349098045	0
0	7304	2297.423475934891	1
0	7308	2298.59730002563	0
0	7311	2299.416224066751	0
0	7319	2302.779159103751	0
0	7324	2303.32234887965	1
0	7337	2308.690857660956	1
0	7353	2314.209920888999	1
0	7372	2319.329271130962	2
0	7376	2320.255950807476	0
0	7393	2324.819829114247	1
0	7398	2326.092925292206	1
0	7402	2327.784317977843	0
0	7412	2330.50766434893	1
0	7426	2335.064654326765	0
0	7432	2335.598968045087	1
0	7446	2340.966730773448	0
0	7451	2341.017537908628	1
0	7469	2346.403769104042	2
0	7471	2346.656838561874	0
0	7487	2351.865910895866	1
0	7488	2351.912512214853	0
0	7498	2356.212792491307	1
0	7503	2356.878485381602	1
0	7508	2357.695178207475	0
0	7523	2362.574165022698	1
0	7525	2363.049376834648	0
0	7539	2367.832038789521	1
0	7557	2372.869379650568	2
0	7558	2373.34803902416	1
0	7569	2376.055462135582	0
0	7575	2378.575746510525	0
0	7579	2378.622303090989	1
0	7594	2383.813237965339	1
0	7610	2388.449220017995	0
0	7615	2389.79040237423	1
0	7636	2395.385922636371	2
0	7644	2397.766356179257	0
0	7654	2400.476821501739	1
0	7673	2405.642281685024	2
0	7674	2405.74728951638	0
0	7680	2408.274829690694	0
0	7689	2411.164050283608	1
0	7696	2413.025470902678	1
0	7698	2413.510124849737	1
0	7708	2416.931576594477	1
0	7711	2417.600981515948	0
0	7720	2420.765759538392	0
0	7727	2422.319837463321	1
0	7730	2423.930104939035	0
0	7740	2428.176478964742	1
0	7751	2432.054376923479	0
0	7756	2433.363014372298	1
0	7763	2435.847276484826	0
0	7771	2439.134958180366	1
0	7772	2439.434362816857	0
0	7783	2444.475875198841	1
0	7797	2449.691056662472	1
0	7798	2449.759500852086	0
0	7807	2452.640175410197	0
0	7812	2454.727979097516	0
0	7816	2455.398021155503	1
0	7823	2459.221882894519	0
0	7825	2459.766530723544	0
0	7829	2461.202797866892	1
0	7836	2466.254025371279	1
0	7838	2467.102768648998	0
0	7846	2471.949296317528	1
0	7850	2474.017614518757	0
0	7857	2477.736731313401	1
0	7868	2482.970573879778	1
0	7886	2488.644454542547	1
0	7897	2492.146576786879	0
0	7905	2493.681264829821	1
0	7913	2496.029196506016	0
0	7923	2498.830864149611	1
0	7934	2501.933413357708	0
0	7940	2504.081049924017	0
0	7945	2504.156118966639	1
0	7961	2509.922320886515	1
0	7963	2510.324619302059	0
0	7971	2513.234351596097	0
0	7979	2515.169732630951	1
0	7991	2520.34081434319	0
0	7995	2520.720198478782	1
0	8004	2525.683716719851	0
0	8010	2526.414870340144	1
0	8024	2531.715609827079	1
0	8036	2535.08981782943	0
0	8045	2537.125933009433	1
0	8068	2542.519975704956	0
0	8073	2542.906130273361	1
0	8086	2547.174928007647	0
0	8092	2548.112408619607	1
0	8099	2549.83114216372	0
0	8111	2553.437845498324	1
0	8114	2554.075561689797	0
0	8119	2555.8527904253	0
0	8128	2559.322927245172	1
0	8145	2565.10802275152	1
0	8159	2569.018870804808	0
0	8169	2570.756398448023	1
0	8182	2574.418433406857	0
0	8189	2576.101095335559	1
0	8191	2576.331739701564	0
0	8196	2577.794548304169	0
0	8206	2581.51528800116	1
0	8220	2587.12059510965	1
0	8223	2588.55428531929	0
0	8236	2592.451968222159	1
0	8258	2598.414672242711	2
0	8263	2599.37644392706	0
0	8275	2603.42587446468	1
0	8279	2603.702263357584	1
0	8287	2606.345773233917	0
0	8298	2609.590809340356	1
0	8309	2613.24774224579	0
0	8317	2615.023048827425	1
0	8320	2615.828317264211	0
0	8333	2620.484926885692	0
0	8337	2620.77475389489	1
0	8342	2622.150681582863	0
0	8355	2626.306827852503	1
0	8363	2630.028339977028	0
0	8369	2631.681125623873	1
0	8370	2631.792576246779	0
0	8373	2632.78362423007	0
0	8382	2637.370281422977	1
0	8394	2643.083973613103	1
0	8409	2648.81212708098	1
0	8417	2651.619592974197	0
0	8429	2654.665168087465	1
0	8431	2655.552694708459	0
0	8436	2657.371202194017	0
0	8444	2659.885938206456	1
0	8458	2665.321788137547	1
0	8461	2666.102580935928	0
0	8475	2670.937251559693	1
0	8487	2674.85044793552	0
0	8491	2675.540347632721	0
0	8495	2676.12886301824	1
0	8496	2676.492734600211	0
0	8509	2682.0076818401	1
0	8516	2685.205184290421	0
0	8522	2687.275350536919	1
0	8524	2687.53336206975	0
0	8536	2693.101023707772	1
0	8551	2699.002822431736	1
0	8557	2700.823865113778	0
0	8571	2704.417142325547	1
0	8589	2709.479240840534	2
0	8599	2711.96994224668	0
0	8606	2714.059303197545	0
0	8613	2715.438403654145	1
0	8623	2719.179214172996	1
0	8626	2720.470519930826	0
0	8632	2720.777634584578	1
0	8642	2725.225962261437	0
0	8647	2726.048496246105	1
0	8648	2726.328735483345	0
0	8659	2731.632032783003	1
0	8674	2736.637027001474	1
0	8675	2737.165579869993	0
0	8691	2741.928946536267	1
0	8707	2746.334566545904	0
0	8713	2747.303736107424	1
0	8726	2751.618022614274	0
0	8734	2753.014706119197	1
0	8741	2755.44526536588	0
0	8751	2758.251796676778	0
0	8755	2758.598639953184	1
0	8756	2759.227732308558	0
0	8770	2763.972833772657	1
0	8785	2769.729533550098	1
0	8788	2770.589396500145	0
0	8793	2772.377700650367	0
0	8801	2775.263256242267	1
0	8816	2780.487025445561	1
0	8825	2784.023078248604	0
0	8836	2786.149810100208	1
0	8855	2791.435063309736	2
0	8858	2792.338696591438	1
0	8865	2794.160525179003	0
0	8872	2796.592161637034	0
0	8876	2796.76459221216	1
0	8887	2801.909718392536	0
0	8892	2802.689345060616	1
0	8909	2807.967085997808	1
0	8930	2813.488010780654	2
0	8931	2813.539927092262	1
0	8935	2814.537296474443	0
0	8946	2818.704985389023	0
0	8950	2819.009443848395	1
0	8964	2824.672202221119	1
0	8987	2830.515045639361	2
0	8992	2832.181840223028	1
0	8994	2832.897692139844	0
0	8997	2832.95685468102	0
0	9006	2836.300225572196	1
0	9023	2841.662950218889	1
0	9024	2841.748164036428	0
0	9032	2844.510643820279	0
0	9035	2846.0792573808	0
0	9040	2846.804818748497	1
0	9047	2850.94111806748	0
0	9052	2852.584739275044	1
0	9062	2857.622995293001	1
0	9063	2857.964966025903	0
0	9077	2863.045229968848	1
0	9084	2864.522923937649	0
0	9093	2868.468705673702	1
0	9101	2871.383749543574	0
0	9108	2873.656553109176	1
0	9125	2878.823106054216	1
0	9129	2880.188900099719	0
0	9136	2882.233412336907	0
0	9145	2884.807839485118	1
0	9148	2886.275691270245	0
0	9159	2889.965869135922	1
0	9172	2895.078185836319	1
0	9184	2898.635606476921	0
0	9192	2900.466214257293	1
0	9209	2905.539706574288	2
0	9211	2905.66963668412	0
0	9224	2910.29925858264	0
0	9228	2910.599910443184	1
0	9245	2916.444940258051	1
0	9246	2916.4616659818	0
0	9249	2917.116921182023	0
0	9255	2919.918147115387	0
0	9257	2920.185005826059	1
0	9263	2921.950631078333	1
0	9277	2927.257334719645	1
0	9278	2927.848842041918	0
0	9292	2932.756194380578	1
0	9302	2937.823637444176	0
0	9306	2937.99737495021	1
0	9310	2940.20397948299	0
0	9321	2943.416840930004	1
0	9322	2943.633032200858	0
0	9333	2948.77332304057	0
0	9337	2948.815988507588	1
0	9350	2954.024941076525	1
0	9363	2959.287067758386	1
0	9368	2961.364997831056	0
0	9372	2962.123943211047	0
0	9381	2965.110314636026	1
0	9394	2968.854640536941	0
0	9400	2970.245321090334	1
0	9405	2971.809212916763	0
0	9415	2975.638230934274	1
0	9431	2980.81515390426	1
0	9434	2981.80070249748	0
0	9437	2982.061125092674	0
0	9447	2985.856639710489	1
0	9458	2990.638204092625	0
0	9464	2991.13727452187	1
0	9478	2996.666852019729	1
0	9501	3002.022987329403	2
0	9518	3006.726374510911	0
0	9523	3007.206410283225	1
0	9524	3007.584885066845	0
0	9544	3012.974085540979	1
0	9547	3014.077114440037	0
0	9561	3018.692049273525	1
0	9566	3020.354178084761	1
0	9583	3024.273353057217	2
0	9584	3025.360592211715	0
0	9587	3025.646447204288	1
0	9599	3029.712312379621	1
0	9616	3034.776050918273	0
0	9620	3034.867562162459	1
0	9626	3036.85845470941	0
0	9638	3040.269247435967	1
0	9658	3045.619547300043	2
0	9664	3047.864825400295	0
0	9666	3048.076571662447	0