version 3
run General-9-20240428-16:41:48-11298
attr configname General
attr datetime 20240428-16:41:48
attr datetimef 20240428-164148
attr experiment General
attr inifile omnetpp.ini
attr iterationvars $0=true
attr iterationvarsd true
attr iterationvarsf true-
attr measurement $0=true
attr network Supermarket
attr processid 11298
attr repetition 9
attr replication #9
attr resultdir results
attr runnumber 9
attr seedset 9
config network Supermarket
config repeat 10
config seed-set 9
config num-rngs 10
config **.use_random_strategy true

vector 0 Supermarket queueSizeOverTime:vector ETV
attr recordingmode vector
attr source updateQueue
attr title queueSizeOverTime
vector 1 Supermarket customerWaitingTime:vector ETV
attr interpolationmode none
attr recordingmode vector
attr source customerFinished
attr title "cust waiting time"
0	7	5.153054198949	1
0	14	10.31191503862	2
0	22	16.100432863925	1
0	34	21.2267312638	3
0	44	27.052362064133	2
0	49	29.923473443952	2
0	58	32.437366374303	3
0	68	37.608139083255	1
0	79	42.81925000495	1
0	84	43.586964096641	1
0	87	44.161926391184	2
0	96	46.454880506384	0
0	101	48.298565498203	0
0	105	49.076179122785	3
0	116	54.382131750928	4
0	120	56.970997253084	0
0	126	59.440605263458	1
0	135	64.48315117089	1
0	141	66.994677513254	3
0	152	69.610309763811	1
0	174	74.956217893166	2
0	194	80.372217350639	4
0	208	84.375116957235	0
0	216	86.21784567018	3
0	227	90.568283675821	2
0	233	91.667459874414	3
0	237	93.273974295125	0
0	245	96.334414248355	3
0	249	97.116754220799	1
0	265	102.71864815359	4
0	276	106.672762814209	3
0	283	108.265730269486	4
0	289	110.49399555684	2
0	300	113.642428903375	5
0	306	115.634407702137	0
0	316	119.029901758768	6
0	322	122.027565277181	1
0	329	124.534963736078	1
0	346	129.664788703202	2
0	349	130.510232547293	5
0	363	134.987228774001	2
0	370	137.943420923085	1
0	379	140.048102264061	1
0	400	145.895210186021	3
0	413	149.855163564094	0
0	422	151.741719003303	1
0	424	152.486999865505	2
0	427	152.715946943384	0
0	433	154.956536925507	4
0	437	156.397236359888	1
0	442	157.260202008069	2
0	444	158.029577798785	3
0	459	162.695417349462	1
0	473	166.616495266673	1
0	481	167.927432896572	2
0	489	169.920531227955	0
0	502	173.585583800918	2
0	513	176.85326914955	1
0	517	178.482924426558	1
0	523	179.04672086146	4
0	524	179.352072992356	3
0	543	184.951766046465	2
0	549	187.355439194364	0
0	559	190.871914510385	1
0	562	191.983951937061	1
0	577	196.853702003372	1
0	598	202.201178199847	2
0	603	203.378436063177	2
0	620	207.450162244963	2
0	643	212.801140289058	2
0	651	215.053674907425	1
0	657	216.744046767711	1
0	666	218.259161586643	3
0	678	222.153545650074	1
0	687	223.533917468044	2
0	708	228.992673239906	3
0	717	232.166057281656	2
0	725	234.442650653538	0
0	730	234.840642950966	3
0	746	240.716018113543	4
0	763	245.885800017745	5
0	768	247.088263219456	0
0	770	248.521438765342	2
0	778	251.468838472853	3
0	782	254.25691593391	4
0	790	257.438069763829	4
0	801	262.947332938437	5
0	811	268.540680107896	1
0	823	272.978884952483	3
0	831	274.478337351468	4
0	848	280.419195078316	6
0	854	282.874028104824	5
0	862	285.587687923343	1
0	881	290.947759488368	2
0	884	291.484417043861	0
0	898	296.348420513099	1
0	907	299.470602473714	0
0	914	301.042043638767	1
0	919	302.322105847536	2
0	925	304.15598623477	3
0	938	307.558701527076	1
0	940	308.727548521133	4
0	957	312.797686619688	5
0	977	318.491033696806	3
0	993	323.676366180418	4
0	1004	326.616660616251	0
0	1012	328.799972363868	3
0	1016	329.232710924702	1
0	1017	329.454061284304	2
0	1035	334.373769039991	4
0	1048	338.840916985767	4
0	1057	339.892341369535	5
0	1064	341.641067667741	1
0	1080	345.128770901594	2
0	1083	346.016334476537	4
0	1104	351.121476297039	2
0	1126	357.083488605922	5
0	1129	358.069663456646	3
0	1138	360.671835647085	1
0	1145	362.231070873566	2
0	1148	362.964274071963	1
0	1152	364.238684281827	4
0	1166	368.209932979435	3
0	1191	373.808195628464	2
0	1207	377.89281110664	2
0	1215	379.356960819341	3
0	1224	382.295705442902	3
0	1226	382.852895665089	2
0	1236	384.936270586919	3
0	1238	385.745657742495	1
0	1243	386.837217274245	2
0	1257	390.605515872248	2
0	1261	390.628538739873	3
0	1283	395.965606157673	4
0	1306	401.792290331102	4
0	1319	405.662143123458	0
0	1326	407.2253214852	5
0	1329	408.290418632217	3
0	1343	413.122678509904	4
0	1348	413.210509885806	3
0	1354	416.523305196784	2
0	1362	418.634784179279	1
0	1363	418.878762961602	2
0	1377	422.51459897623	3
0	1384	424.142195222206	3
0	1393	426.111176883094	2
0	1405	429.279858447384	4
0	1426	434.854772239929	3
0	1433	437.116728279975	2
0	1437	437.803015931978	1
0	1447	440.428292296134	3
0	1458	444.208666544992	0
0	1467	445.665289317729	1
0	1468	445.833153495454	0
0	1475	448.241003902736	2
0	1478	449.307237175179	3
0	1488	451.451256233273	1
0	1507	457.113647658616	2
0	1527	462.190221224917	4
0	1530	462.875245071373	0
0	1536	464.128416234283	1
0	1541	465.858023788317	3
0	1547	467.198741402715	2
0	1552	469.161626439078	2
0	1566	473.146740795584	3
0	1583	478.978429186163	4
0	1584	479.304709923792	1
0	1595	483.675783480523	3
0	1601	484.431036367319	3
0	1618	490.065921719424	4
0	1635	495.20741428901	4
0	1636	495.342920140017	3
0	1649	500.527246684307	5
0	1650	500.564246396773	4
0	1666	506.316603770951	4
0	1673	508.311123423052	3
0	1677	509.498337683024	0
0	1684	511.862848755211	1
0	1688	513.645680577847	3
0	1697	516.887135220232	2
0	1712	521.907003777108	4
0	1714	522.28384078434	2
0	1723	525.824318756585	1
0	1732	527.775746244478	1
0	1753	533.559312695411	5
0	1755	534.007589380962	4
0	1774	538.640644820414	3
0	1777	539.795015067799	2
0	1785	541.432878774479	0
0	1795	544.365723295843	1
0	1804	547.141374516657	3
0	1813	549.526493871359	2
0	1825	553.359599754102	0
0	1832	554.574780916104	1
0	1842	557.790248099021	1
0	1847	559.16019184085	1
0	1849	559.328122520592	2
0	1856	560.352837511113	2
0	1878	565.57918906655	3
0	1894	569.993582769651	1
0	1897	570.826929523503	0
0	1904	571.487670512179	2
0	1917	576.640645441607	2
0	1919	577.567012965803	2
0	1936	582.636055446005	3
0	1951	587.821138317938	4
0	1952	588.181256651885	3
0	1969	593.512009229287	3
0	1975	595.46153790481	2
0	1978	596.146995152585	1
0	1982	597.595734328617	2
0	1990	599.490294836936	3
0	2006	604.542939174696	4
0	2009	605.545561454381	1
0	2015	607.601778089423	0
0	2023	610.385112447207	2
0	2034	615.471125752208	1
0	2041	617.956329941288	3
0	2050	621.151049975082	1
0	2070	626.935427843136	2
0	2079	628.973164873438	1
0	2085	630.833459161925	2
0	2089	631.773197841375	0
0	2093	632.136667170338	1
0	2103	634.891610018567	1
0	2116	637.631427414259	2
0	2133	643.014853126612	3
0	2152	648.159008869213	3
0	2156	649.092980481228	0
0	2171	653.561916030954	2
0	2174	653.965773654873	2
0	2176	654.504786442156	2
0	2181	656.231995087475	1
0	2192	658.691939115535	2
0	2207	664.17419175828	1
0	2208	664.394171103374	1
0	2229	669.976379467651	3
0	2233	670.631128701622	1
0	2245	674.029434631119	2
0	2254	675.428423620539	2
0	2272	680.49224019401	2
0	2274	680.929750988155	1
0	2278	681.661378509137	1
0	2286	683.36173316418	1
0	2296	686.041865539981	2
0	2304	688.468334974379	0
0	2311	690.462494537354	1
0	2316	691.726184776995	2
0	2333	696.984279213484	1
0	2334	697.465870991472	0
0	2340	699.06518387853	0
0	2345	702.198683924401	1
0	2349	702.711426456935	2
0	2363	708.053284314937	1
0	2364	709.025551433452	1
0	2379	713.265856464404	1
0	2395	718.384365063404	2
0	2403	721.464984024768	0
0	2410	723.6471391786	1
0	2415	724.22149048281	2
0	2431	729.749491398466	2
0	2432	729.773266354121	0
0	2437	732.374400863782	1
0	2444	734.919187520408	1
0	2459	740.422876819047	3
0	2473	745.570022399082	2
0	2478	746.167569862456	2
0	2492	751.371643337897	2
0	2496	752.586156031474	1
0	2502	754.587266416996	1
0	2510	757.214668893964	2
0	2521	761.763820730043	1
0	2524	762.925841995758	1
0	2528	762.984611445815	1
0	2550	768.949385870258	2
0	2574	774.60936752894	2
0	2593	779.731702231113	2
0	2596	780.377703635964	1
0	2598	780.598468993681	0
0	2601	781.502631249383	1
0	2611	785.067675287612	3
0	2626	790.981608851124	4
0	2634	794.736129793348	0
0	2638	795.475328432059	3
0	2643	796.777178775529	2
0	2654	802.74639775768	4
0	2661	806.372045781707	1
0	2667	808.288213464209	1
0	2683	814.067724484495	1
0	2701	818.377754402125	3
0	2706	819.469902586668	2
0	2728	825.422879779955	2
0	2744	830.049075230268	0
0	2749	831.171039243705	4
0	2753	832.965962162481	1
0	2767	836.915195807592	1
0	2770	837.841953651176	1
0	2785	842.21323677363	2
0	2787	842.863019509948	0
0	2790	843.808773658248	1
0	2805	848.196896231045	5
0	2810	849.935385107541	4
0	2816	852.179914734219	0
0	2823	854.072056248096	1
0	2833	858.284642283233	0
0	2836	859.549584888632	3
0	2840	859.679309639392	4
0	2850	864.929004866175	2
0	2852	865.127190815763	1
0	2863	870.088502496725	2
0	2875	875.390723387023	3
0	2879	877.783593749641	3
0	2883	880.283456608084	2
0	2888	880.852809073647	3
0	2891	882.639563843854	2
0	2897	885.564076352179	2
0	2902	886.715708904445	1
0	2917	891.85889739521	3
0	2920	892.765137519002	1
0	2935	897.631573891045	4
0	2937	898.474031530451	3
0	2947	902.458997537396	2
0	2954	903.377967005373	2
0	2971	909.306459906288	3
0	2985	914.580217605001	3
0	2992	917.110565052612	0
0	3001	920.313811781128	1
0	3011	924.509399891146	2
0	3018	925.353669639221	4
0	3021	926.341214129016	3
0	3035	930.878467308367	1
0	3058	936.72456278327	3
0	3070	940.352053074642	0
0	3080	942.579508507634	1
0	3099	947.923998765657	2
0	3100	948.345506158897	1
0	3111	950.882307287087	2
0	3116	952.207291763056	2
0	3122	953.379449181501	2
0	3142	958.672524283417	3
0	3146	959.421640061556	2
0	3167	964.669569630418	3
0	3171	966.348801520892	2
0	3177	967.901508780561	1
0	3189	970.163235765193	3
0	3208	975.783170163408	2
0	3210	976.348569761041	0
0	3219	980.407323881882	2
0	3226	981.236458889218	3
0	3243	987.215310831564	3
0	3248	989.159912304036	2
0	3259	992.489415708241	1
0	3260	992.741406393836	2
0	3270	995.666638086567	1
0	3272	996.263218272602	1
0	3279	997.695703225453	2
0	3289	1001.39881725902	0
0	3295	1003.205613192413	1
0	3299	1003.530533337743	2
0	3309	1006.952303627047	0
0	3316	1009.268018737911	3
0	3319	1011.356483273566	2
0	3326	1014.311726351046	1
0	3339	1019.422013984072	1
0	3344	1021.174002605738	1
0	3361	1025.152352327724	3
0	3378	1030.193127526096	0
0	3385	1030.91162405653	2
0	3398	1036.046713655126	1
0	3402	1037.153412267575	2
0	3423	1041.769630046571	2
0	3424	1042.164020151026	1
0	3433	1043.960610307064	0
0	3441	1046.558224427292	1
0	3446	1047.21109927563	3
0	3455	1050.428052873831	2
0	3459	1051.312937122082	0
0	3464	1053.163405013979	1
0	3478	1058.026819615053	0
0	3483	1058.530573469829	3
0	3490	1062.584642876648	0
0	3496	1064.152448862801	4
0	3503	1069.362770325281	5
0	3505	1071.470783519692	4
0	3511	1074.863831887031	5
0	3520	1080.636886201343	1
0	3531	1086.229280190785	1
0	3537	1088.725856518615	0
0	3545	1092.009453149988	1
0	3564	1097.519778460973	1
0	3575	1101.124811830249	4
0	3584	1103.148116556705	2
0	3586	1103.8926004005	1
0	3598	1107.067692409745	0
0	3607	1108.896504149317	5
0	3610	1110.399896970735	4
0	3625	1114.70805328224	2
0	3636	1117.994949769705	1
0	3646	1120.294638967618	2
0	3663	1126.125136816885	2
0	3672	1129.259431838418	1
0	3679	1131.290484758105	3
0	3680	1131.468824577761	2
0	3688	1135.552322889114	3
0	3695	1137.224547291651	3
0	3713	1142.764850691437	4
0	3729	1148.207757732609	5
0	3741	1152.659076223631	4
0	3746	1153.23820442754	5
0	3756	1156.741677334778	0
0	3763	1158.809015267772	4
0	3765	1160.232938030046	3
0	3774	1164.298553750395	1
0	3791	1169.848832659667	4
0	3807	1175.256009397573	5
0	3814	1178.652787426389	4
0	3823	1180.698292421187	5
0	3839	1185.748851984749	1
0	3854	1190.946288010813	4
0	3860	1191.281211649543	2
0	3863	1192.191650627073	0
0	3879	1196.622530826843	3
0	3900	1202.516568957139	5
0	3902	1203.358553713548	2
0	3917	1208.176209302396	1
0	3918	1208.217345339265	4
0	3940	1213.594060116923	5
0	3942	1213.933701788666	0
0	3952	1217.725432219467	4
0	3961	1219.488606459704	5
0	3965	1220.912558312301	4
0	3979	1225.416288957243	6
0	3987	1228.290841536258	1
0	3996	1231.310365627763	7
0	4014	1237.206069776333	2
0	4032	1242.63266870916	8
0	4039	1245.22636974628	7
0	4043	1246.738737466996	6
0	4050	1248.3424912023	1
0	4056	1249.611411082333	3
0	4070	1253.900705157442	1
0	4074	1254.081583497824	2
0	4091	1259.042307366754	5
0	4097	1259.716029628191	4
0	4118	1265.397767180355	3
0	4123	1267.191171373377	4
0	4127	1268.359325472971	3
0	4140	1271.081897942127	2
0	4157	1275.928194504943	2
0	4161	1276.411769459267	4
0	4177	1281.71912457655	3
0	4182	1282.01055770415	3
0	4193	1285.100356686057	1
0	4202	1287.125615446839	4
0	4224	1292.977761157566	2
0	4230	1294.575650164991	3
0	4234	1295.425734202041	2
0	4245	1298.381804595945	4
0	4253	1300.530063136494	1
0	4267	1303.727707296155	2
0	4280	1307.780960683952	3
0	4287	1309.260014485579	3
0	4305	1313.660306730782	2
0	4310	1314.356669834826	3
0	4328	1319.690823110763	4
0	4332	1320.437491997394	3
0	4336	1321.535783096695	1
0	4344	1324.045360403848	3
0	4354	1325.454241915384	4
0	4363	1328.047461155235	2
0	4372	1330.385688723895	1
0	4377	1330.992766301624	5
0	4399	1336.512145324854	2
0	4416	1341.265104928068	1
0	4422	1342.049298083886	2
0	4427	1343.372221998878	2
0	4431	1344.619171650162	0
0	4442	1347.281501945585	1
0	4445	1348.341533944956	4
0	4463	1352.569762149604	3
0	4485	1358.367001306975	3
0	4494	1361.32213150199	2
0	4498	1362.610618642544	3
0	4505	1363.554700451681	4
0	4517	1366.776178483398	0
0	4526	1368.760371385386	3
0	4527	1368.764327295953	2
0	4532	1370.221163621884	3
0	4534	1370.488080777351	2
0	4548	1374.22647691426	1
0	4568	1379.976574596261	3
0	4591	1385.779073937807	2
0	4594	1387.369183498332	1
0	4604	1389.81230661972	2
0	4613	1391.706282201234	2
0	4625	1395.361450980199	1
0	4635	1397.638212238915	3
0	4645	1400.80011731201	1
0	4648	1401.689703441354	2
0	4653	1402.457848142954	2
0	4659	1403.411321381584	2
0	4679	1408.47302518693	2
0	4690	1412.067860452473	1
0	4701	1414.179520417016	3
0	4707	1416.222616935513	0
0	4721	1419.884158134006	3
0	4724	1421.299257309074	1
0	4730	1423.319691849882	2
0	4734	1424.938960859209	2
0	4739	1425.076713712199	3
0	4754	1430.468450527417	3
0	4769	1436.017663002724	1
0	4780	1439.264445856693	0
0	4787	1441.301066198398	4
0	4803	1446.445734300662	5
0	4805	1446.752177362918	4
0	4809	1447.664723855449	3
0	4811	1448.214305678507	2
0	4825	1451.767507085821	3
0	4842	1457.364895223186	1
0	4855	1462.148055778479	0
0	4857	1462.647786861414	0
0	4859	1462.655771939671	2
0	4864	1462.775349266839	1
0	4870	1465.398396254524	2
0	4880	1468.529550190328	3
0	4898	1474.310669989569	1
0	4904	1476.350482212974	0
0	4914	1479.46986913263	4
0	4928	1485.344952733732	5
0	4935	1487.91163404275	1
0	4944	1491.241414337197	2
0	4946	1491.299027538047	4
0	4962	1496.369739306636	5
0	4971	1500.18119759335	1
0	4977	1501.898574739473	2
0	4984	1504.353312023453	4
0	4994	1507.494043635681	1
0	5013	1513.173507262498	3
0	5016	1513.768152169193	0
0	5028	1518.401234870205	0
0	5033	1518.682549249392	5
0	5036	1520.833106408024	2
0	5044	1523.712842923367	1
0	5051	1525.760506457885	4
0	5061	1529.364039073011	0
0	5065	1529.368779467662	1
0	5080	1535.225846967205	5
0	5095	1540.68649761147	6
0	5104	1544.290556153518	5
0	5112	1545.9860392355	1
0	5120	1548.799540139165	1
0	5131	1551.609030833013	2
0	5136	1552.436039443139	1
0	5147	1555.939594752865	0
0	5153	1557.238833661435	2
0	5158	1558.797207943289	1
0	5170	1562.413650398386	1
0	5186	1567.291670005895	0
0	5191	1568.085253574663	2
0	5202	1572.43738024903	4
0	5211	1574.034441912557	5
0	5218	1576.649271181914	1
0	5228	1579.169584456841	1
0	5236	1582.103752809004	0
0	5244	1585.077800461101	1
0	5251	1586.748629632532	0
0	5263	1590.516955419221	1
0	5284	1596.241488761745	2
0	5299	1601.022849650124	4
0	5307	1602.085785822721	3
0	5313	1603.712460647114	0
0	5319	1605.612329227398	0
0	5327	1607.647677717741	5
0	5329	1608.386021702445	2
0	5338	1612.74096742157	1
0	5344	1615.040191106967	4
0	5346	1615.290504945686	0
0	5349	1616.731859410418	3
0	5355	1618.523964724514	1
0	5372	1623.987021912133	4
0	5381	1627.468901110941	1
0	5387	1629.241000104473	0
0	5391	1629.735501522908	5
0	5402	1634.745207159791	2
0	5413	1640.180640783405	6
0	5416	1642.080037312235	5
0	5423	1645.352335446525	3
0	5433	1650.420921568537	1
0	5435	1650.854706886236	2
0	5450	1655.826644354278	3
0	5457	1658.564615819722	4
0	5467	1661.652405327663	1
0	5471	1662.258842041602	3
0	5488	1666.882061087771	2
0	5508	1671.976281733031	4
0	5522	1676.528198105759	1
0	5526	1677.228483067371	5
0	5528	1677.37963670214	0
0	5534	1678.615549956923	4
0	5544	1681.652572504948	2
0	5550	1683.0006730219	1
0	5565	1687.302748276515	0
0	5571	1688.296417715272	3
0	5579	1692.062643736607	2
0	5586	1693.505419672478	2
0	5589	1694.558552990095	1
0	5602	1698.863742884493	2
0	5609	1702.044157552659	3
0	5621	1704.491624827741	4
0	5636	1710.099481360067	3
0	5648	1715.535151986878	2
0	5653	1715.946849477955	3
0	5657	1717.090835128686	3
0	5670	1721.496836151707	4
0	5672	1722.602196689705	1
0	5682	1726.507156516205	5
0	5698	1731.519049976499	4
0	5708	1735.952058866745	4
0	5711	1736.680883994681	3
0	5715	1736.805474403792	1
0	5733	1742.108630312386	5
0	5755	1747.698152016395	2
0	5758	1748.869202177167	1
0	5766	1751.685579709598	2
0	5776	1753.4550451222	2
0	5791	1758.315536985651	1
0	5795	1758.718230856129	6
0	5815	1763.733349690459	7
0	5819	1764.773131329459	6
0	5837	1769.416332409497	7
0	5841	1770.596496896945	0
0	5853	1774.853465004133	1
0	5858	1775.325280822593	2
0	5874	1780.792909853406	1
0	5878	1781.72279721977	0
0	5891	1786.759322834447	8
0	5909	1792.577858250368	1
0	5910	1792.660129762378	1
0	5915	1793.681634647436	0
0	5919	1794.816224775869	7
0	5930	1798.227258094133	2
0	5931	1798.256476993686	0
0	5943	1803.335553964612	1
0	5958	1808.418662750407	2
0	5963	1809.874322629889	1
0	5975	1813.5976364317	3
0	5977	1813.972463872293	6
0	5986	1817.762860329831	5
0	5991	1818.650712031417	6
0	5992	1818.753755679481	2
0	5996	1819.839311158877	1
0	6008	1823.65970954533	1
0	6018	1826.650860091795	0
0	6024	1828.7065482908	5
0	6029	1829.287971809751	2
0	6046	1834.319182952645	6
0	6055	1837.592138655722	5
0	6057	1837.993031794564	0
0	6059	1838.576734274986	1
0	6066	1840.237681733922	6
0	6080	1846.14746853268	2
0	6081	1846.660098420811	5
0	6092	1851.814026530378	1
0	6110	1857.565592272452	3
0	6119	1860.548081861588	0
0	6125	1862.691156204336	1
0	6135	1866.79798359262	2
0	6143	1868.658720510325	3
0	6144	1868.824299531295	4
0	6160	1873.96481270903	5
0	6176	1879.679994741699	1
0	6183	1881.950713794575	0
0	6194	1884.84996097699	2
0	6204	1888.670367614494	1
0	6211	1890.047771334427	4
0	6218	1893.948235694095	3
0	6225	1895.279622696817	6
0	6233	1898.366548026917	5
0	6236	1898.90002735565	4
0	6243	1900.658202390663	2
0	6245	1901.312015699	1
0	6260	1906.313282750791	4
0	6262	1907.107148684222	0
0	6275	1911.952232207183	5
0	6287	1916.959514804661	1
0	6290	1918.368318641102	3
0	6303	1922.111282948183	2
0	6315	1925.663609613675	2
0	6317	1926.281875978815	4
0	6324	1927.675232143385	5
0	6329	1929.1294832707	4
0	6337	1932.59336294351	3
0	6342	1932.910407918749	4
0	6359	1938.386918890301	5
0	6368	1941.634163908905	1
0	6378	1943.64410599718	3
0	6383	1945.19239349548	0
0	6389	1947.750132963188	2
0	6394	1948.708227985549	6
0	6400	1951.497584405712	5
0	6408	1954.415168173854	1
0	6426	1959.844070545175	3
0	6432	1962.475994906398	0
0	6441	1965.038278477277	1
0	6443	1966.638998319523	2
0	6458	1970.560948035225	3
0	6472	1976.054956112418	0
0	6477	1976.407328667363	4
0	6478	1977.291709787337	4
0	6486	1981.408459259792	3
0	6490	1982.03271691316	5
0	6498	1986.180149978505	2
0	6504	1987.863724537904	3
0	6506	1989.417600392722	4
0	6516	1993.144699984009	4
0	6527	1998.917265539535	5
0	6540	2004.070919564238	1
0	6556	2009.806038193416	1
0	6565	2012.913757765441	3
0	6572	2015.494984606526	4
0	6577	2015.704441810737	5
0	6578	2015.753675716239	2
0	6581	2016.166265827266	0
0	6587	2017.788144031318	0
0	6598	2021.373279284465	6
0	6607	2026.649820275151	1
0	6608	2027.092943959998	5
0	6625	2032.589890920103	1
0	6635	2036.024838909869	4
0	6648	2038.46908921866	3
0	6649	2038.714268655643	2
0	6657	2041.37947357133	3
0	6668	2043.477354316286	3
0	6688	2049.163740725734	2
0	6698	2052.580917482274	2
0	6709	2054.249058052909	2
0	6721	2058.501939728751	1
0	6729	2059.979015732196	4
0	6730	2060.169041835482	1
0	6748	2065.346609373007	3
0	6752	2065.45882266505	2
0	6774	2071.064752115182	4
0	6798	2077.045622383257	5
0	6801	2078.158829250851	0
0	6809	2080.04521027325	1
0	6820	2082.288061697514	6
0	6834	2087.357946704384	1
0	6838	2087.60895074393	7
0	6840	2087.83584347322	6
0	6854	2091.993046766508	0
0	6861	2093.42638420245	1
0	6862	2094.255367105021	0
0	6872	2098.568264911662	7
0	6879	2102.379600486382	0
0	6881	2103.062140456531	6
0	6885	2103.915952127672	1
0	6886	2104.696764093255	5
0	6898	2109.850784617256	6
0	6905	2114.124342895476	0
0	6910	2115.008438259609	1
0	6920	2120.146166321136	7
0	6924	2123.056303295438	6
0	6932	2125.339959913645	1
0	6948	2130.39124549461	7
0	6966	2136.289895938956	1
0	6981	2141.089197922393	0
0	6985	2141.759580436642	2
0	6992	2144.626459450594	6
0	6999	2146.671877753351	0
0	7004	2147.400517152636	1
0	7018	2152.576575165395	7
0	7035	2158.494867889224	8
0	7038	2159.836128622542	1
0	7044	2162.407040314878	0
0	7051	2163.830183474593	1
0	7065	2168.890442814924	2
0	7071	2171.286692424344	7
0	7083	2174.636451824116	1
0	7090	2177.204627870246	0
0	7102	2180.626054238774	2
0	7118	2186.149141404325	3
0	7122	2187.134589113773	1
0	7129	2189.941490799553	6
0	7137	2191.889603483736	1
0	7148	2195.451633739531	2
0	7156	2196.896069958353	2
0	7159	2197.438129668604	5
0	7161	2197.66090634967	0
0	7175	2202.627022452432	3
0	7193	2208.225662177907	4
0	7194	2208.597523283459	1
0	7198	2209.946327795287	3
0	7210	2213.862643156446	4
0	7225	2219.259543547419	5
0	7237	2224.037350055657	4
0	7243	2224.729461951426	6
0	7258	2230.32510831604	5
0	7265	2232.719839007025	5
0	7275	2235.627238362108	2
0	7285	2239.719537617536	1
0	7292	2240.916802624019	1
0	7312	2246.605233045306	2
0	7331	2251.9582530365	1
0	7336	2252.185358548548	2
0	7347	2255.960543700389	4
0	7356	2257.828043219645	6
0	7358	2258.140035540459	1
0	7375	2262.877131755708	5
0	7377	2263.637806130237	5
0	7384	2265.305437312823	4
0	7397	2268.290799891588	2
0	7416	2273.819551668142	5
0	7423	2275.904355622958	0
0	7433	2278.915611683869	1
0	7452	2283.988673887461	6
0	7455	2284.948414798958	1
0	7461	2286.245747157154	4
0	7467	2287.833210101598	0
0	7476	2289.826836605802	2
0	7478	2290.463263909231	1
0	7485	2293.349454986877	5
0	7493	2295.560953940743	1
0	7500	2297.244378794232	0
0	7515	2300.77813944897	1
0	7526	2304.936459481496	0
0	7528	2305.008449179484	3
0	7535	2306.445283290477	4
0	7550	2311.590929543845	2
0	7566	2317.123598825665	5
0	7570	2317.992172571845	4
0	7583	2322.126813063178	5
0	7600	2327.853220936389	3
0	7608	2330.543935601965	4
0	7615	2333.184592821182	1
0	7625	2336.219800430247	2
0	7634	2338.284201635759	3
0	7636	2339.101812112859	4
0	7649	2341.828466275953	2
0	7658	2343.729465822236	2
0	7680	2349.622539440415	3
0	7695	2353.626348537876	3
0	7700	2354.62380462793	4
0	7704	2355.401450356832	1
0	7721	2359.877231217235	2
0	7728	2361.942641808897	2
0	7730	2362.330980578802	3
0	7745	2365.650655295014	3
0	7749	2366.716465399964	1
0	7763	2370.725015733404	2
0	7765	2370.925488948257	3
0	7787	2375.813079506172	4
0	7793	2377.55166022516	1
0	7795	2377.78753788072	2
0	7810	2381.364882744396	4
0	7821	2383.748271209904	3
0	7823	2384.271064225368	3
0	7833	2386.598769899471	3
0	7853	2392.064990543774	4
0	7861	2394.551624695318	3
0	7874	2397.814776472528	4
0	7878	2398.359647199295	3
0	7887	2401.398779094237	2
0	7898	2403.025626683388	2
0	7906	2405.18072685624	1
0	7915	2408.387476496646	2
0	7919	2408.527222302755	3
0	7935	2413.800079471677	2
0	7957	2419.09826560343	4
0	7966	2421.329878035134	2
0	7977	2424.527979389663	1
0	7981	2424.813465639961	5
0	7985	2425.618579610852	4
0	8001	2430.271982610238	3
0	8002	2430.504076298573	2
0	8004	2430.665276610542	0
0	8019	2435.732911683631	5
0	8033	2441.013187765622	1
0	8035	2441.016927538689	1
0	8039	2441.156757537753	2
0	8041	2442.350568505603	0
0	8052	2446.985466211813	6
0	8059	2450.24099301735	5
0	8066	2452.62482153509	1
0	8080	2458.070403001748	1
0	8091	2461.804948658926	0
0	8096	2463.308525091517	1
0	8101	2463.568825065635	2
0	8115	2468.937475029856	6
0	8129	2474.54684723147	5
0	8133	2474.568515917297	2
0	8146	2479.519514981325	4
0	8152	2480.39013672365	1
0	8161	2484.970902602083	0
0	8168	2486.031319459212	5
0	8178	2489.610364952718	1
0	8185	2491.262166431417	2
0	8189	2492.545136289683	1
0	8200	2496.863828117271	2
0	8206	2498.961484417214	1
0	8219	2502.624115274997	2
0	8226	2505.62367615513	4
0	8235	2508.005844823794	3
0	8240	2509.690331215291	3
0	8245	2510.946527344078	2
0	8252	2513.218546815693	3
0	8259	2515.668553009411	2
0	8269	2518.643696731433	4
0	8284	2523.679325644171	1
0	8287	2524.485325893516	3
0	8296	2526.838827776742	1
0	8307	2529.036353937594	4
0	8325	2534.362366018828	5
0	8330	2535.102329072325	1
0	8334	2536.218699448288	4
0	8352	2540.280777761724	2
0	8361	2542.825056333921	3
0	8367	2543.677048789001	0
0	8372	2545.353482490659	1
0	8376	2545.442462644085	4
0	8384	2549.298351952357	0
0	8387	2549.944414636257	0
0	8392	2550.457163574418	1
0	8404	2556.186044257844	1
0	8419	2561.372017300699	5
0	8424	2563.818442538275	4
0	8427	2564.537670699191	0
0	8434	2566.383624643331	1
0	8436	2567.535792140651	3
0	8442	2569.498460652667	0
0	8448	2571.688740273483	2
0	8453	2574.827323769696	1
0	8456	2576.524214192305	0
0	8461	2576.775366695376	1
0	8469	2581.710598421642	2
0	8473	2581.964580175012	1
0	8487	2587.803301143704	2
0	8502	2593.625148797652	3
0	8516	2598.852114792459	3
0	8526	2602.410317337383	2
0	8528	2602.908244082133	2
0	8536	2604.733342109492	1
0	8549	2608.257539117023	0
0	8559	2610.5255322985	3
0	8575	2616.159864925558	3
0	8589	2621.51798604686	1
0	8590	2621.833733944468	0
0	8602	2626.50816880319	2
0	8607	2626.824197913764	4
0	8624	2632.582749313686	3
0	8625	2632.596449922899	3
0	8642	2638.053128035285	4
0	8648	2640.879960164905	3
0	8658	2643.269122269482	2
0	8669	2648.605967834253	1
0	8673	2648.794199268811	4
0	8676	2649.877264142282	3
0	8691	2654.764922128536	4
0	8705	2660.09151419067	3
0	8710	2660.261344276147	4
0	8717	2663.41386144074	2
0	8727	2665.638847264007	1
0	8745	2671.303785866836	5
0	8748	2671.932672348117	4
0	8756	2674.157371470366	0
0	8761	2675.66442485376	1
0	8768	2676.512431861844	2
0	8770	2677.336333815718	1
0	8779	2680.367062490911	0
0	8785	2682.412384029256	5
0	8795	2687.863939223124	1
0	8806	2692.017908685968	0
0	8813	2693.398741314665	6
0	8826	2699.311269191804	2
0	8827	2699.446995309217	5
0	8830	2700.748169619253	4
0	8836	2703.687778110279	3
0	8840	2704.655038189155	1
0	8857	2710.114982011973	1
0	8862	2711.315327164262	1
0	8880	2715.984874002415	4
0	8901	2721.8504440128	2
0	8903	2722.231931931351	1
0	8919	2727.098086100783	5
0	8924	2728.820046148274	0
0	8927	2729.380807777531	4
0	8938	2732.345864926711	2
0	8953	2737.490440378212	1
0	8967	2741.712117447064	1
0	8969	2741.804181294294	0
0	8975	2743.230416563353	5
0	8982	2745.451188501333	4
0	8993	2748.775266464813	2
0	8994	2749.1263614403	1
0	9007	2753.979890077155	1
0	9027	2759.282203363035	2
0	9038	2762.741094118928	0
0	9044	2764.890045490128	3
0	9048	2765.009827960063	1
0	9068	2770.679523614016	2
0	9072	2771.405786988338	1
0	9082	2774.418233910125	0
0	9092	2776.42509755773	2
0	9110	2781.895054875654	4
0	9113	2783.02171901114	3
0	9130	2787.68370007236	3
0	9135	2789.690532762453	2
0	9138	2790.51585742297	1
0	9142	2791.194027415026	2
0	9147	2792.385417663505	1
0	9151	2792.698668298558	3
0	9168	2798.584471391528	2
0	9179	2803.499579519631	2
0	9185	2804.318226769348	1
0	9206	2810.201468370403	2
0	9218	2814.180008471141	1
0	9228	2816.0909857012	2
0	9239	2819.234893093713	1
0	9247	2821.344409639147	1
0	9252	2821.653078064103	2
0	9267	2827.04558376725	1
0	9273	2827.361738760969	3
0	9290	2833.067611125311	2
0	9297	2834.862926065471	1
0	9312	2838.234536276445	2
0	9314	2838.601078602731	2
0	9325	2840.713588548491	1
0	9327	2840.738885812357	0
0	9329	2841.272569264531	1
0	9336	2842.640616522418	0
0	9342	2843.837247624308	2
0	9353	2849.469749786904	3
0	9366	2854.500677464543	2
0	9368	2855.762611857864	1
0	9378	2859.812394541701	1
0	9381	2861.631776382462	2
0	9396	2865.549588109147	1
0	9416	2871.202952056904	2
0	9422	2872.851810280484	1
0	9430	2875.478753632763	1
0	9437	2876.319395156125	2
0	9444	2878.76915950085	0
0	9455	2881.622403841712	2
0	9456	2881.848543809973	1
0	9471	2886.634896037648	3
0	9474	2888.24649315271	2
0	9480	2890.265989205348	0
0	9487	2892.126551351756	1
0	9505	2897.538894138545	1
0	9522	2902.556209477959	0
0	9526	2902.627408999032	2
0	9540	2907.652765352758	2
0	9543	2908.301584196871	1
0	9546	2909.126806939622	1
0	9559	2913.109062459333	3
0	9570	2917.114901265493	2
0	9572	2917.338734881272	0
0	9578	2919.004109846674	2
0	9583	2922.177430058261	1
0	9585	2923.502911130447	1
0	9592	2924.802545179859	2
0	9603	2930.135828641024	1
0	9608	2931.459848304292	0
0	9617	2936.047345471349	1
0	9632	2941.451793925152	1
0	9655	2947.048511647167	2
0	9666	2949.332135026825	1
0	9671	2950.958061577419	0
0	9678	2952.718391283196	1
0	9690	2956.826356052317	1
0	9693	2957.644709603292	0
0	9699	2958.443129075239	1
0	9702	2959.430326819315	0
0	9708	2960.906394909847	0
0	9717	2963.577070512357	1
0	9733	2969.478168512941	1
0	9755	2975.232544524143	2
0	9759	2976.434027504306	1
0	9767	2978.758909846904	0
0	9774	2980.327252618749	2
0	9782	2983.237914424868	0
0	9786	2984.988340285504	1
0	9791	2986.191466406001	2
0	9803	2991.59052301153	3
0	9812	2996.529037504124	0
0	9817	2997.558497944394	1
0	9829	3003.010642648687	4
0	9840	3008.192663599517	2
0	9845	3010.439519822727	3
0	9854	3013.689656001296	1
0	9860	3016.527090860078	0
0	9867	3018.910899204681	1
0	9869	3019.744254218892	1
0	9883	3024.278022341676	2
0	9899	3030.069536119712	2
0	9903	3031.630493823336	2
0	9908	3033.460460165294	1
0	9917	3035.669423907076	3
0	9923	3038.766293443753	2
0	9932	3041.540735968866	3
0	9940	3044.181923126116	1
0	9948	3046.557943177188	4
0	9956	3050.039075464489	3