version 3
run General-19-20240430-20:30:45-5506
attr configname General
attr datetime 20240430-20:30:45
attr datetimef 20240430-203045
attr experiment General
attr inifile omnetpp.ini
attr iterationvars $0=false
attr iterationvarsd false
attr iterationvarsf false-
attr measurement $0=false
attr network Supermarket
attr processid 5506
attr repetition 9
attr replication #9
attr resultdir results
attr runnumber 19
attr seedset 19
config network Supermarket
config repeat 10
config num-rngs 10
config **.use_random_strategy false

vector 0 Supermarket queueSizeOverTime:vector ETV
attr recordingmode vector
attr source updateQueue
attr title queueSizeOverTime
vector 1 Supermarket customerWaitingTime:vector ETV
attr interpolationmode none
attr recordingmode vector
attr source customerFinished
attr title "cust waiting time"
0	7	5.887327658245	1
0	14	11.618011673214	1
0	26	17.534196762834	1
0	41	23.224735314027	1
0	53	26.633686681743	0
0	57	27.656041642534	0
0	63	28.967356815702	1
0	67	30.345103877945	0
0	78	34.561402489199	1
0	92	40.039675316075	1
0	99	42.60236531694	0
0	109	45.265895885881	1
0	113	46.481810259167	0
0	119	48.180330018281	0
0	121	48.635374134174	0
0	127	51.178545760689	1
0	139	56.879735481692	1
0	146	59.907905705506	0
0	154	62.844582743709	1
0	156	63.216612832736	0
0	167	68.282004869076	1
0	171	69.430248168877	0
0	181	73.488703327718	1
0	186	75.478486987877	0
0	195	79.299048181156	1
0	196	79.623723443948	0
0	200	81.873226937837	0
0	206	84.356284570413	1
0	219	89.99652304896	1
0	236	95.708569810724	1
0	250	100.357736587174	0
0	252	100.62638939393	0
0	257	101.255056333261	1
0	259	102.436499854315	0
0	263	103.893231529041	0
0	269	106.706728240474	1
0	271	107.589132051913	0
0	278	112.645949259399	1
0	283	115.417378779965	0
0	290	118.57599226618	1
0	293	119.787427593254	0
0	300	123.746017753378	1
0	306	128.05458189349	0
0	310	129.245988964102	1
0	324	134.835255596553	1
0	337	140.087846185778	1
0	349	143.617071924496	0
0	361	145.818482063011	1
0	369	149.051091850617	0
0	372	149.152796878943	0
0	379	151.479368888772	1
0	386	154.802611481862	0
0	388	154.809870001743	0
0	393	157.039035067194	1
0	395	158.355455928713	0
0	403	162.060022731543	1
0	412	167.248446575365	1
0	414	167.97748273774	0
0	427	172.379650675458	1
0	439	177.657328021594	0
0	444	177.728171517373	1
0	459	183.375548373208	1
0	460	183.451877397368	0
0	473	188.715817999093	1
0	480	190.195621666266	0
0	492	194.184265006332	1
0	495	195.112237834487	0
0	503	197.116630766539	0
0	510	199.207383069208	1
0	513	200.989699708297	0
0	517	203.050563305149	0
0	523	204.703477367291	1
0	536	210.45051956875	1
0	551	216.157390074802	1
0	555	217.247722952392	0
0	567	220.971221196928	0
0	571	221.158247618235	1
0	577	223.685851341927	0
0	588	226.896931653374	1
0	598	231.617831907467	0
0	600	232.343740912617	0
0	604	232.573684772241	1
0	617	238.297676748826	1
0	622	239.985750453545	0
0	625	241.006130757738	0
0	629	243.017452817176	0
0	633	243.4597034601	1
0	640	248.779218905137	1
0	651	253.891067483925	1
0	655	255.750701865413	0
0	657	256.02034294151	0
0	659	256.164272057587	0
0	663	259.463423664679	1
0	671	265.184045537605	1
0	683	270.321848842545	1
0	696	275.458920941452	1
0	714	281.177381409329	2
0	719	282.516213940455	1
0	737	286.817840629021	2
0	739	287.361153817732	0
0	741	287.511749536263	0
0	748	291.219515387781	1
0	754	292.472644399382	1
0	756	293.335821401788	0
0	767	298.036385426992	1
0	781	303.863272329555	1
0	789	306.895268012648	0
0	791	307.116318225856	0
0	798	309.550340770274	1
0	800	310.065267311059	0
0	810	315.423327995693	1
0	823	320.409694614466	0
0	827	320.546537229554	1
0	836	324.222039659038	0
0	843	326.222799231759	1
0	844	326.647861359985	0
0	857	332.169093024214	1
0	861	334.220165950126	0
0	871	337.853956728238	1
0	885	343.507098285477	1
0	894	345.90508158295	0
0	904	349.387587295375	1
0	921	354.521287426348	2
0	925	355.182216528217	0
0	938	359.937835125947	1
0	945	362.226020154425	0
0	947	362.753869369622	1
0	954	364.112935558307	0
0	960	365.001566495509	1
0	974	370.08396332338	1
0	992	375.374139433024	2
0	998	376.674470866326	0
0	1011	380.532221976896	1
0	1012	381.177225889633	1
0	1030	385.628323312146	2
0	1039	388.653285190111	0
0	1050	391.27084287209	1
0	1056	393.225253725535	0
0	1070	397.1487496125	1
0	1087	402.8073000994	0
0	1092	402.994528352744	1
0	1102	406.612095762857	1
0	1113	408.809291852401	2
0	1130	413.825396264666	2
0	1145	419.152304307435	0
0	1151	419.760130921374	1
0	1152	419.852716888531	1
0	1171	424.862786195469	2
0	1177	426.538697736337	1
0	1190	429.892345841271	2
0	1192	430.233974468774	0
0	1197	431.851964193159	0
0	1207	435.223298151042	1
0	1220	440.363960385784	1
0	1231	443.262687743521	1
0	1240	445.426909574303	2
0	1243	445.740744139995	1
0	1257	449.801536112088	0
0	1261	450.452499952981	1
0	1267	451.309569349508	1
0	1270	452.587895477884	0
0	1279	455.082864229447	0
0	1286	457.135873252289	1
0	1300	462.418269851241	1
0	1314	466.365471231051	0
0	1320	467.426639769222	1
0	1338	472.621347294418	2
0	1347	475.593316343725	0
0	1355	477.810375636672	1
0	1363	480.515010306729	1
0	1368	481.293439307363	0
0	1377	483.364766967479	1
0	1383	485.024531061524	0
0	1396	489.034063995812	1
0	1397	489.127388610265	0
0	1412	494.408153336613	0
0	1417	494.815900678975	1
0	1429	500.314506957303	1
0	1450	506.114476322192	2
0	1471	512.090951479501	2
0	1473	512.591532326882	0
0	1483	515.532826464735	0
0	1492	518.043395844283	1
0	1496	519.045040011753	1
0	1499	520.407480860941	1
0	1507	523.112912809005	1
0	1525	527.843390061748	0
0	1529	528.433923384635	1
0	1537	531.157050069183	0
0	1550	533.952136865346	1
0	1559	536.553576009579	0
0	1563	537.474436760176	0
0	1567	538.539475452383	0
0	1569	539.261425612606	0
0	1573	539.635986131611	1
0	1581	545.171363492491	1
0	1592	550.246879035602	1
0	1608	555.276386515698	1
0	1629	561.016509796022	2
0	1630	561.427937989233	0
0	1648	566.344406703249	1
0	1655	568.411217666108	1
0	1661	569.837380260222	0
0	1671	571.974776932266	1
0	1673	573.092153219035	0
0	1676	573.710064167851	0
0	1686	577.728882517195	1
0	1692	580.086787034986	0
0	1700	582.78094274783	1
0	1714	587.847317103524	1
0	1735	593.216510490975	2
0	1746	596.862992348259	0
0	1754	598.923458507745	1
0	1759	599.186835908326	1
0	1768	602.594401362347	0
0	1770	602.596432298996	0
0	1778	604.841354809929	1
0	1793	610.631958624576	1
0	1811	616.074607926649	2
0	1818	618.001032515658	0
0	1822	619.139678447036	1
0	1832	621.969596459526	1
0	1837	624.39583847287	0
0	1840	624.571680296207	0
0	1845	627.186985895964	0
0	1849	627.325047218702	1
0	1861	633.272446089187	1
0	1875	638.479769116962	1
0	1878	640.043418836195	0
0	1891	643.770242038877	1
0	1906	649.018130387992	0
0	1912	649.460164589337	1
0	1923	652.508904706448	0
0	1931	655.17621068365	0
0	1935	655.254604019918	1
0	1951	660.267265311437	1
0	1970	666.153345071007	2
0	1975	667.414347513224	0
0	1984	670.660537221464	0
0	1990	671.778124299827	1
0	1991	672.106307554752	0
0	1996	674.561533010093	1
0	2003	676.813575046598	1
0	2018	681.887091481355	1
0	2037	687.336142033334	2
0	2046	689.746961482446	1
0	2062	693.122389378254	2
0	2078	697.400504003973	0
0	2083	698.127454004478	1
0	2085	698.750990199849	0
0	2101	703.47039513918	1
0	2105	704.568950342241	0
0	2120	708.799361852458	1
0	2140	714.015941369342	2
0	2151	716.47539167804	0
0	2155	717.652011533032	1
0	2162	719.288751793554	1
0	2178	723.073102849412	0
0	2181	723.486311646292	0
0	2188	725.098548445612	1
0	2203	730.423420833418	1
0	2222	735.589156646392	1
0	2228	736.276706650615	2
0	2247	742.204997504358	2
0	2250	742.93243840825	0
0	2252	743.086112094339	1
0	2257	744.7412324798	0
0	2265	747.262202661945	1
0	2275	750.57099809462	1
0	2283	752.844672425645	1
0	2298	757.264186215931	0
0	2305	758.473762201606	1
0	2308	759.532965183251	0
0	2312	760.667035279791	0
0	2319	763.035275968483	0
0	2323	763.48834041459	1
0	2335	768.980992272026	1
0	2350	774.458217947739	1
0	2372	780.396980377841	2
0	2382	783.008885472425	1
0	2393	785.408584335814	2
0	2411	790.636199767231	2
0	2420	793.039265705965	1
0	2425	794.147523134241	1
0	2437	796.354840079783	2
0	2438	796.374424523203	0
0	2441	797.101963822376	0
0	2452	801.544860658929	1
0	2467	807.336057849223	1
0	2483	812.62224120774	0
0	2487	813.030176037219	1
0	2505	818.869237244357	2
0	2506	819.049011519174	1
0	2515	821.498848164915	1
0	2527	824.166667111213	2
0	2547	829.20148028526	2
0	2548	829.968286977843	0
0	2566	835.147911880161	1
0	2569	835.49446600128	0
0	2577	838.250042314521	1
0	2587	840.189391244431	1
0	2596	843.194985304719	1
0	2601	843.882209775615	0
0	2608	846.018799730805	1
0	2609	846.069725778416	0
0	2626	851.332687550453	1
0	2627	852.010805357359	0
0	2634	854.523857538466	0
0	2643	857.109645461892	1
0	2652	861.060534092012	0
0	2654	861.316412731185	0
0	2659	862.372689557723	1
0	2670	868.02046650508	1
0	2672	869.160859812745	0
0	2683	873.210557268463	1
0	2697	878.323464015495	1
0	2701	879.577168836721	0
0	2704	880.076534010465	0
0	2715	884.322750644522	1
0	2726	888.267329134276	0
0	2733	889.879821970124	1
0	2734	889.954252574588	0
0	2746	895.81303529278	1
0	2760	901.561749279262	1
0	2780	907.409289775645	2
0	2784	908.679218310858	1
0	2800	912.457477266198	2
0	2807	914.833181592516	0
0	2816	917.865962529784	1
0	2825	920.922101054801	0
0	2833	923.200208427614	1
0	2846	927.337575980923	0
0	2848	927.345506942249	0
0	2854	928.87342024827	1
0	2869	934.4757392914	1
0	2872	935.061271528128	0
0	2886	939.800327455156	1
0	2893	942.115387927388	1
0	2908	945.333357196531	2
0	2929	950.932573538969	2
0	2931	951.291635887345	0
0	2948	956.790483216054	1
0	2956	959.144188275906	1
0	2958	959.263998275505	0
0	2964	960.836247986413	1
0	2970	961.966146352465	1
0	2991	967.318869363048	2
0	3007	972.304152695226	1
0	3012	972.483174099817	2
0	3034	977.884948819174	2
0	3035	978.227476799391	0
0	3043	980.738532203943	0
0	3047	982.754302144863	1
0	3051	983.128431847781	1
0	3054	984.393944502571	1
0	3059	985.493995455206	0
0	3066	988.53007410769	1
0	3073	991.261141303108	0
0	3082	994.426032182059	1
0	3092	998.381188294498	0
0	3097	999.871625219934	1
0	3109	1004.577116989876	0
0	3114	1005.548110380765	1
0	3124	1010.065779020541	0
0	3130	1010.956338826796	1
0	3138	1014.284940063484	0
0	3144	1015.988151726076	1
0	3147	1016.945894033644	0
0	3158	1021.277592971684	1
0	3174	1026.966914386484	1
0	3193	1032.465848305957	2
0	3194	1032.59284119331	0
0	3210	1037.821824119422	1
0	3225	1042.331480992604	0
0	3229	1042.758349524339	0
0	3234	1043.587057957421	1
0	3239	1045.862592461631	1
0	3251	1049.034638422537	1
0	3256	1050.62656570924	0
0	3261	1052.438303615428	0
0	3267	1054.318791235094	1
0	3272	1056.467510803016	0
0	3277	1058.961419294118	0
0	3282	1059.554049383611	1
0	3292	1064.870307607338	1
0	3305	1070.358967397123	0
0	3310	1070.750970216463	1
0	3316	1073.682973534213	0
0	3323	1075.965695124347	1
0	3334	1080.433302403538	0
0	3340	1081.719937216019	1
0	3343	1082.639042650228	0
0	3347	1083.642631965567	0
0	3349	1084.265488171595	0
0	3353	1087.652670542005	1
0	3359	1093.366053272265	1
0	3367	1097.715891314314	0
0	3372	1099.000239857466	1
0	3383	1104.836854710703	1
0	3384	1104.897398147142	0
0	3395	1110.173653817496	1
0	3400	1111.851746708498	0
0	3410	1115.681020105717	1
0	3425	1121.20135631854	1
0	3427	1122.010804507873	0
0	3445	1126.723902179387	1
0	3455	1129.633138232975	0
0	3466	1132.617455276887	1
0	3473	1135.172757287388	0
0	3478	1136.861366449267	0
0	3484	1137.749412408325	1
0	3494	1142.353212747251	0
0	3499	1143.702906855841	1
0	3514	1149.257719250624	0
0	3518	1149.358355125638	1
0	3521	1150.886990792111	0
0	3530	1154.742347239044	1
0	3546	1160.09389155823	1
0	3564	1165.89534484734	2
0	3582	1170.672019768384	0
0	3586	1171.231249307042	1
0	3591	1172.914796749355	1
0	3598	1174.625411994748	0
0	3603	1176.07181104819	0
0	3607	1176.237782905336	1
0	3612	1177.853436790867	0
0	3615	1179.400196924099	0
0	3621	1181.691268750691	1
0	3628	1186.030997780261	0
0	3633	1187.601516930378	1
0	3637	1189.962405269375	0
0	3643	1192.972792488747	1
0	3649	1197.086262699674	0
0	3654	1198.730848113765	1
0	3665	1204.146611317984	1
0	3669	1206.155299483904	0
0	3680	1209.657371808999	1
0	3684	1210.748719154615	0
0	3687	1211.664033208732	0
0	3690	1214.725854902288	0
0	3694	1215.330320266765	1
0	3700	1220.834026252609	1
0	3712	1226.013202166874	1
0	3727	1231.044182931995	1
0	3735	1234.410146886124	0
0	3746	1236.573229146879	1
0	3764	1241.719328327793	2
0	3766	1241.946680255458	0
0	3785	1247.60705681703	1
0	3787	1248.475547630679	1
0	3796	1250.768782964781	0
0	3801	1252.471007796346	0
0	3805	1253.010531865982	1
0	3819	1258.064514131508	1
0	3821	1258.676941952427	0
0	3828	1260.44631938612	0
0	3837	1263.983918466595	1
0	3855	1269.68142633302	1
0	3857	1269.945039809674	0
0	3874	1275.513897771238	1
0	3877	1276.384840202042	0
0	3891	1281.327168018779	1
0	3892	1281.429383939705	0
0	3900	1284.171066224914	0
0	3904	1285.745345381311	0
0	3910	1287.314778292308	1
0	3917	1291.248930273799	0
0	3923	1293.225488150249	1
0	3932	1298.213644611288	0
0	3936	1298.250248906425	1
0	3948	1303.61488740215	1
0	3952	1305.873074642256	0
0	3961	1309.08414886332	1
0	3974	1312.995005748921	0
0	3980	1314.845857558994	1
0	3982	1314.976019329264	0
0	3994	1320.110260751786	1
0	4010	1326.025069228363	1
0	4030	1331.207457109577	2
0	4035	1332.670054454697	0
0	4037	1332.895235621242	1
0	4047	1336.457143927914	1
0	4057	1339.799021366391	0
0	4067	1341.977466560657	1
0	4080	1345.89886422524	0
0	4086	1347.165377041315	1
0	4092	1348.706470257705	0
0	4107	1352.74179743532	1
0	4114	1355.245811579622	0
0	4124	1357.76772861787	1
0	4145	1363.291117007368	2
0	4151	1365.166551925814	0
0	4164	1369.168228490268	1
0	4186	1374.361807728176	2
0	4189	1374.916554586369	0
0	4193	1376.139789136814	1
0	4195	1376.889842482625	1
0	4207	1379.70764081668	1
0	4213	1381.716724413902	0
0	4219	1383.083238915415	0
0	4226	1385.135038394005	1
0	4244	1390.725172577416	1
0	4248	1392.253979653458	0
0	4250	1392.828101383047	0
0	4252	1393.129316442287	0
0	4258	1396.088769760671	1
0	4272	1401.718294154609	1
0	4276	1402.828238693406	0
0	4286	1407.58102030469	1
0	4300	1413.166124643633	0
0	4304	1413.515355748114	1
0	4318	1418.781906558656	1
0	4326	1420.870491681959	0
0	4339	1424.421747915204	1
0	4341	1425.144773741708	0
0	4343	1425.921358365091	0
0	4355	1430.419244710113	1
0	4359	1432.017591526255	0
0	4368	1435.540411605955	1
0	4385	1440.914799697687	1
0	4401	1444.866048777352	0
0	4408	1446.6900818115	1
0	4417	1449.27019579696	0
0	4426	1451.934410264473	1
0	4446	1457.644597551077	2
0	4447	1457.780085882045	0
0	4456	1461.451387674537	1
0	4462	1462.73374697565	1
0	4471	1465.104583399826	0
0	4482	1467.971615469539	1
0	4490	1469.861631926137	0
0	4503	1473.676303453966	1
0	4507	1475.060855067558	0
0	4509	1475.06518334312	0
0	4519	1479.141870565004	1
0	4534	1484.83668998884	1
0	4545	1488.344554621368	0
0	4554	1490.451357528092	1
0	4558	1491.840144745179	0
0	4572	1495.631640874073	1
0	4577	1496.623570855346	0
0	4583	1498.022758530559	0
0	4592	1501.038407772072	1
0	4604	1505.53191193169	0
0	4609	1506.308128404888	1
0	4611	1507.226896201949	0
0	4621	1512.031570535377	1
0	4632	1516.959264553609	0
0	4636	1517.159598904187	1
0	4638	1517.429181180535	0
0	4644	1520.536055824711	0
0	4650	1523.000907271393	1
0	4656	1527.641775925635	0
0	4661	1528.923696206874	1
0	4668	1533.780054752008	0
0	4673	1534.829559623721	1
0	4683	1540.433918305199	1
0	4699	1545.61453597922	1
0	4701	1546.100858197538	0
0	4709	1548.197196406887	0
0	4715	1551.410972025703	1
0	4732	1556.753576601615	1
0	4743	1559.959083720568	0
0	4750	1561.811788477462	1
0	4762	1565.292260242618	0
0	4771	1566.924324432381	1
0	4791	1572.401121794239	2
0	4799	1574.077172840589	0
0	4802	1575.249490697861	0
0	4805	1576.364088978495	1
0	4811	1577.522031262277	1
0	4827	1583.103591477026	1
0	4835	1585.451814678957	0
0	4838	1585.846385293401	0
0	4844	1588.266259268152	1
0	4861	1593.755951900727	1
0	4873	1596.568071365466	0
0	4880	1599.039646030396	0
0	4884	1599.25193832814	1
0	4886	1600.772211719646	0
0	4896	1604.556775802972	1
0	4909	1610.074171497945	1
0	4914	1611.503612688618	0
0	4929	1615.510496245224	1
0	4931	1616.607648101977	0
0	4943	1620.852967444916	0
0	4945	1621.107309107778	0
0	4949	1621.265861273503	1
0	4959	1626.706296642536	1
0	4961	1628.078358971158	0
0	4965	1630.511398251044	0
0	4971	1632.153312792994	1
0	4985	1638.048502783051	1
0	4994	1642.203210955943	0
0	5000	1643.942488993977	1
0	5008	1647.669990889722	0
0	5010	1648.796717633486	0
0	5015	1649.288054078112	1
0	5019	1651.345293753773	0
0	5026	1654.986593138652	1
0	5035	1660.585650233544	1
0	5038	1661.423184387029	0
0	5048	1665.792941456187	1
0	5051	1667.278068277861	0
0	5062	1671.126406929215	1
0	5078	1676.738499117774	1
0	5097	1682.416858389732	2
0	5118	1687.567886233088	2
0	5136	1692.557602124166	1
0	5140	1693.529403142156	2
0	5149	1696.008611515854	1
0	5160	1698.702649717443	2
0	5175	1703.248302710236	0
0	5181	1703.979613549533	1
0	5183	1704.078589926116	0
0	5198	1709.333237741367	1
0	5202	1710.928566704963	1
0	5220	1715.294197075061	2
0	5238	1721.027345655245	2
0	5245	1722.781657453501	1
0	5259	1726.29781897761	2
0	5262	1726.757370909086	0
0	5272	1729.984001305993	1
0	5280	1732.235944116712	1
0	5291	1735.202057303155	1
0	5299	1737.427836155163	0
0	5304	1737.596973370752	1
0	5321	1742.622474521157	2
0	5326	1744.140364424084	1
0	5336	1747.631863805806	0
0	5341	1748.135858855667	1
0	5365	1753.794318282968	2
0	5373	1756.583178791325	0
0	5383	1759.497121736399	1
0	5385	1760.180696812915	1
0	5390	1761.427577227927	0
0	5400	1764.955637945785	1
0	5419	1770.005014488698	2
0	5420	1770.112179845329	1
0	5441	1775.529601773704	2
0	5443	1775.943079652606	0
0	5455	1780.447501602922	0
0	5460	1780.778858881901	1
0	5468	1783.329442134699	1
0	5479	1786.747945255824	1
0	5491	1790.522672466807	0
0	5501	1792.471315658177	1
0	5502	1792.923905439783	0
0	5506	1794.322137311908	1
0	5522	1798.078059650716	1
0	5543	1803.433630037113	2
0	5562	1808.868228013386	2
0	5567	1810.37745739449	1
0	5574	1812.16567113878	0
0	5579	1812.970815036204	0
0	5585	1814.328976284238	1
0	5597	1818.727442043825	1
0	5604	1820.270422033724	1
0	5626	1825.899495499665	2
0	5635	1828.39484923565	0
0	5642	1830.258713317676	1
0	5648	1831.557025078442	1
0	5667	1836.797708340678	2
0	5689	1842.284948426755	2
0	5690	1842.868047170332	0
0	5695	1843.68577910435	0
0	5705	1848.00941506586	1
0	5707	1849.128381358449	1
0	5720	1853.042489093952	1
0	5739	1858.775991145978	2
0	5754	1863.451402492926	1
0	5757	1864.120014115458	1
0	5762	1864.60823785862	2
0	5775	1868.387725754165	0
0	5784	1870.583457773775	1
0	5800	1875.80738870205	0
0	5805	1876.257912023682	1
0	5823	1881.670434863297	2
0	5836	1884.715541124451	0
0	5840	1885.560915300493	1
0	5846	1886.921899679806	1
0	5858	1890.671911170112	0
0	5861	1891.054874829121	1
0	5868	1892.21504409261	1
0	5888	1897.3689426619	2
0	5907	1903.120981657403	2
0	5908	1903.653574173558	1
0	5931	1909.119559725272	2
0	5951	1914.148586559799	2
0	5964	1918.101427779172	0
0	5966	1918.377483392474	1
0	5972	1919.163304937529	1
0	5976	1920.253110524371	1
0	5989	1924.057664594366	1
0	5996	1925.048682061248	2
0	6017	1930.886865864965	2
0	6021	1931.614655783039	1
0	6023	1931.65908526325	1
0	6026	1932.233521854842	0
0	6033	1934.549396610692	0
0	6041	1936.782687402555	1
0	6044	1938.354654722487	0
0	6050	1940.652721992686	0
0	6054	1941.932503680458	1
0	6065	1947.182129899963	1
0	6079	1952.524385902091	1
0	6099	1958.015638489501	2
0	6104	1959.555952874695	0
0	6118	1963.46266933879	1
0	6127	1966.891495396842	1
0	6133	1967.758712874834	0
0	6137	1968.700669014702	0
0	6141	1968.921847098266	1
0	6148	1972.239655493516	0
0	6156	1974.856892608331	1
0	6172	1980.38466183887	1
0	6189	1985.715179026352	2
0	6208	1991.330345124229	0
0	6212	1991.420378588365	1
0	6216	1992.36315771541	1
0	6232	1997.121204428134	2
0	6246	2000.811682411694	0
0	6254	2002.68294788221	1
0	6260	2004.372585284864	0
0	6273	2008.094097415676	1
0	6279	2010.031207320624	1
0	6284	2011.462740385082	0
0	6292	2014.024908771731	1
0	6307	2018.571293507231	0
0	6315	2019.892204943804	1
0	6337	2025.871460439164	2
0	6346	2028.072414628455	0
0	6350	2029.45530182297	0
0	6357	2031.084493513211	1
0	6367	2035.992318568047	1
0	6371	2036.18601747811	1
0	6389	2041.958635073846	2
0	6391	2042.098146790048	0
0	6406	2047.354100495802	1
0	6417	2050.230972016223	0
0	6426	2053.268789286019	1
0	6445	2058.609317253336	2
0	6454	2061.231196192785	1
0	6457	2061.847814506725	0
0	6464	2064.122730602504	0
0	6468	2064.469803176347	1
0	6484	2069.907323191866	1
0	6485	2069.988402198761	0
0	6491	2071.942719697829	0
0	6500	2075.105382368194	1
0	6505	2077.472914524951	0
0	6507	2077.770940614971	1
0	6516	2080.527806696009	1
0	6525	2084.852761996088	0
0	6531	2085.975533029756	1
0	6540	2089.860846421209	0
0	6546	2091.523903815534	1
0	6553	2093.380458981608	0
0	6563	2097.072039917104	1
0	6583	2102.633015133666	1
0	6588	2104.137401991981	0
0	6595	2106.544523577895	0
0	6602	2108.011857271187	1
0	6619	2113.975662096862	1
0	6630	2117.795659451971	0
0	6634	2119.011920796934	0
0	6636	2119.162101024987	0
0	6640	2119.728187086286	1
0	6649	2124.772025332313	1
0	6663	2130.022240555838	1
0	6683	2135.195411692366	2
0	6693	2138.503046103978	0
0	6698	2139.472594376995	0
0	6701	2140.371383388518	1
0	6705	2140.432350755196	1
0	6718	2145.777084895285	0
0	6722	2146.060030331828	1
0	6731	2150.718011894606	0
0	6737	2151.107851144851	1
0	6744	2155.596690935307	0
0	6750	2156.535416316467	1
0	6766	2162.48345655924	1
0	6787	2167.6168776364	2
0	6788	2168.298536460141	0
0	6803	2173.188291514053	0
0	6807	2173.475554518395	1
0	6819	2177.658269273926	1
0	6823	2178.6289689911	1
0	6827	2180.145732721307	0
0	6836	2183.387381568428	0
0	6839	2183.750641245623	0
0	6843	2183.781773925753	1
0	6848	2187.227097337944	0
0	6851	2188.258818928961	0
0	6855	2189.043864164496	1
0	6861	2194.188087981654	1
0	6871	2199.661965591827	1
0	6887	2204.94749538367	1
0	6909	2210.672092791641	2
0	6930	2216.612453131232	2
0	6939	2219.955130080337	1
0	6942	2220.202077980146	0
0	6949	2221.802574222901	1
0	6970	2227.231703468825	2
0	6972	2227.814466835341	1
0	6974	2227.931164946867	0
0	6989	2232.498711893794	1
0	7002	2237.007048142256	0
0	7009	2237.636707222781	1
0	7029	2243.128929428284	2
0	7031	2243.337196832168	1
0	7050	2248.803572160651	2
0	7054	2249.828793878192	1
0	7071	2254.787958992173	2
0	7094	2260.205939937842	2
0	7097	2260.623032681405	1
0	7116	2265.909567050396	2
0	7118	2266.879655695047	0
0	7131	2271.126529332709	1
0	7133	2271.661559700026	1
0	7151	2276.839764454278	1
0	7155	2276.946522167411	2
0	7160	2278.517827473922	1
0	7165	2279.526166334625	1
0	7179	2282.911931946168	2
0	7201	2288.502612377975	2
0	7205	2289.713259953183	0
0	7216	2293.486362924091	0
0	7220	2294.022409628603	1
0	7222	2294.766346406184	1
0	7233	2298.423650835283	1
0	7238	2299.264815427588	1
0	7258	2304.597911635406	2
0	7267	2307.566876510499	0
0	7269	2307.854934479568	0
0	7277	2309.84709289157	1
0	7279	2311.498942781465	0
0	7289	2315.51735706743	1
0	7297	2319.189845297711	0
0	7299	2319.867110335608	1
0	7304	2320.743165883693	1
0	7320	2325.937457374987	1
0	7325	2327.875514620908	0
0	7337	2331.031144641797	1
0	7342	2332.583668961764	0
0	7357	2337.018532496869	1
0	7370	2341.600678030276	0
0	7376	2342.242930049069	1
0	7389	2346.467337344065	0
0	7397	2348.019897696089	1
0	7411	2353.212671543815	0
0	7416	2353.868805238737	1
0	7432	2358.588953813415	0
0	7438	2359.670444997952	1
0	7441	2360.415165073116	0
0	7448	2363.094718942296	0
0	7456	2365.113868707086	1
0	7473	2370.905179434682	1
0	7479	2372.860283012843	0
0	7492	2376.826023091323	1
0	7493	2377.219848008238	0
0	7495	2377.75679800426	0
0	7497	2377.992151949895	0
0	7502	2381.954443921212	0
0	7506	2382.519300248933	1
0	7508	2384.135515219642	0
0	7512	2388.234617471688	1
0	7518	2393.471493737998	1
0	7530	2398.837798408226	1
0	7547	2403.846112189109	1
0	7559	2407.922731679508	0
0	7566	2409.106856704915	1
0	7585	2414.233674914103	2
0	7595	2417.708594779478	0
0	7599	2419.111685642618	1
0	7604	2419.956574043019	1
0	7611	2422.08646209805	0
0	7624	2425.83604938932	1
0	7633	2428.716479420538	0
0	7644	2431.180085742839	1
0	7646	2431.938001442578	0
0	7652	2434.050581992248	0
0	7661	2436.310337633586	1
0	7666	2438.030891441503	0
0	7678	2441.366091290715	1
0	7686	2445.347746391076	0
0	7694	2447.124672165832	1
0	7697	2448.622212991459	0
0	7705	2452.515276837854	1
0	7707	2453.502693396055	0
0	7720	2458.501273655093	1
0	7726	2460.546939674059	0
0	7735	2463.890106492902	1
0	7751	2469.160366560791	1
0	7761	2472.216479768039	0
0	7770	2474.930336935671	1
0	7775	2476.69803493772	0
0	7784	2479.946591277251	0
0	7789	2480.164108053541	1
0	7803	2486.087933329858	1
0	7824	2491.899806932073	2
0	7842	2497.751285697096	0
0	7846	2497.766267066581	1
0	7854	2499.697062228798	0
0	7856	2500.168971499883	1
0	7869	2503.562886266729	1
0	7887	2509.023255352389	2
0	7907	2514.159200721878	2
0	7912	2515.663573019432	0
0	7918	2517.429896388545	1
0	7920	2518.568487083882	0
0	7927	2519.992764729067	1
0	7940	2525.123636913711	1
0	7941	2525.17865075589	1
0	7963	2531.110150069922	2
0	7983	2536.92779529676	2
0	7984	2537.410534461835	1
0	8003	2542.140232751138	2
0	8014	2545.126707928014	0
0	8025	2547.832971312796	1
0	8026	2548.00621699762	1
0	8034	2549.96416202105	1
0	8046	2553.407497470259	2
0	8047	2553.564702767519	1
0	8053	2554.929606833141	0
0	8065	2558.734958825625	1
0	8084	2564.097959476981	0
0	8088	2564.421576149055	1
0	8102	2568.977537147809	0
0	8107	2569.479053125476	1
0	8115	2571.805036923604	0
0	8126	2575.036059724159	1
0	8147	2580.977528623297	2
0	8159	2584.187004531727	0
0	8167	2586.091035625191	1
0	8176	2588.773595735538	1
0	8184	2591.307965115753	0
0	8188	2591.726733148789	1
0	8208	2597.033300658448	2
0	8212	2598.558625775147	1
0	8215	2599.292097820775	0
0	8222	2601.368530725587	0
0	8224	2601.387793809166	0
0	8229	2602.851763260544	1
0	8230	2602.876400547909	0
0	8238	2608.786687888664	1
0	8241	2609.688543744378	0
0	8250	2614.205447449575	1
0	8261	2619.748364591499	1
0	8272	2624.341606445139	0
0	8276	2624.962842496804	1
0	8290	2630.159788829734	1
0	8312	2635.977548794582	2
0	8318	2637.385312858495	0
0	8330	2641.593381764827	1
0	8331	2641.744944430997	1
0	8336	2642.807581800496	0
0	8342	2645.265555018669	0
0	8349	2646.636999595672	1
0	8356	2650.14392942306	0
0	8365	2652.588743852912	1
0	8369	2655.03675969352	0
0	8379	2658.541150852567	1
0	8388	2661.768266357708	0
0	8394	2663.690018194024	1
0	8408	2668.792348203943	1
0	8430	2674.43620721716	2
0	8449	2679.577235781465	0
0	8453	2679.662997266739	1
0	8468	2683.568461753191	0
0	8471	2684.515292610619	0
0	8477	2685.449652124658	1
0	8495	2691.280534537272	1
0	8497	2691.741804215936	0
0	8501	2692.515396643307	0
0	8506	2694.957301320971	1
0	8514	2696.838747974714	1
0	8521	2700.377703445842	0
0	8528	2702.070219386831	1
0	8540	2706.422274317938	0
0	8546	2707.870441253061	1
0	8553	2710.714647928831	0
0	8563	2713.607014982958	1
0	8576	2718.670839898984	1
0	8597	2723.908095474585	2
0	8602	2725.720868514149	0
0	8604	2726.015755926838	0
0	8610	2728.603933196396	0
0	8612	2729.6722043039	1
0	8616	2729.672859301555	1
0	8628	2734.793035549342	1
0	8631	2736.219579642983	0
0	8638	2739.086677167093	0
0	8643	2740.498569860121	1
0	8654	2745.775854456935	1
0	8670	2751.629542064385	1
0	8688	2756.83764908253	2
0	8697	2759.63780887029	0
0	8704	2761.711263851843	1
0	8708	2762.07548551657	1
0	8711	2763.329758412784	0
0	8727	2767.948381447464	1
0	8731	2769.363124782333	0
0	8744	2773.376701700499	1
0	8758	2777.784434646832	0
0	8764	2778.825793202499	1
0	8773	2781.171871834666	0
0	8779	2783.008723367585	0
0	8785	2784.057683320481	1
0	8790	2786.092990499453	0
0	8799	2789.98939455021	1
0	8805	2791.55512578343	0
0	8815	2795.558172949588	1
0	8821	2797.837290006456	0
0	8831	2801.433828375068	1
0	8847	2806.908571927108	1
0	8862	2810.700567117657	0
0	8868	2812.043481955769	1
0	8889	2817.948879627044	2
0	8902	2822.269976456183	0
0	8906	2822.987205268695	1
0	8912	2823.843054524389	1
0	8926	2828.701385576975	0
0	8930	2828.890743198804	1
0	8932	2829.613068790291	0
0	8948	2834.827093075495	1
0	8970	2840.107793289237	2
0	8974	2841.944687059846	0
0	8989	2846.076399948681	1
0	9004	2850.677367838798	0
0	9010	2852.066590479575	1
0	9014	2853.397219731353	1
0	9021	2855.107815042138	0
0	9032	2857.93240086711	1
0	9044	2861.240139198955	0
0	9057	2863.677944780327	1
0	9079	2869.552402790868	2
0	9092	2873.677046507132	0
0	9100	2874.951299146981	1
0	9105	2876.95863891568	0
0	9108	2877.922538573965	1
0	9113	2879.39972521888	0
0	9118	2880.590882266172	1
0	9135	2885.814933598506	1
0	9143	2888.433116789557	0
0	9152	2890.822504734154	1
0	9156	2892.100446281837	0
0	9160	2892.998500594985	0
0	9170	2896.812185168731	1
0	9183	2902.177209534216	1
0	9199	2907.939909434526	0
0	9203	2907.961381103377	1
0	9220	2913.070055677439	0
0	9223	2913.612734072259	0
0	9227	2913.688442488666	1
0	9236	2917.000601075239	0
0	9242	2918.802336945198	1
0	9247	2921.545867755426	0
0	9256	2924.381549452431	1
0	9274	2930.252061914885	1
0	9292	2935.651704251068	0
0	9294	2935.655442905962	0
0	9298	2935.775641144719	1
0	9307	2939.098358125775	0
0	9315	2941.300816073315	1
0	9322	2944.200290916255	0
0	9330	2947.069745770888	1
0	9334	2948.775698113023	0
0	9343	2952.15077488427	1
0	9358	2957.981564216781	1
0	9365	2960.395657356945	0
0	9378	2963.421342398971	1
0	9379	2964.285787262604	0
0	9382	2964.981387198322	0
0	9392	2968.724174965871	1
0	9406	2974.384779810439	1
0	9422	2979.151549195987	0
0	9428	2979.926985738333	1
0	9432	2981.71938152972	0
0	9438	2983.488028514082	0
0	9445	2985.649179697735	1
0	9461	2990.711333239218	1
0	9480	2996.493790031178	2
0	9497	3001.137874013976	0
0	9502	3002.069303053664	1
0	9505	3002.790171365137	0
0	9521	3007.505519477418	1
0	9522	3008.148149405026	1
0	9538	3012.692200396443	2
0	9549	3016.353852347124	0
0	9559	3018.169157359982	1
0	9560	3018.435413394941	1
0	9563	3019.24970888393	0
0	9578	3023.771577256965	1
0	9583	3025.484033614397	0
0	9595	3029.030146641657	1
0	9599	3030.692320920645	0
0	9606	3033.334031370005	0
0	9613	3034.319571684348	1
0	9614	3034.772592757245	0
0	9625	3039.481948717032	1
0	9638	3044.248189732782	0
0	9643	3045.112897321117	1
0	9663	3051.089472078253	1