version 3
run General-12-20240428-16:41:48-11297
attr configname General
attr datetime 20240428-16:41:48
attr datetimef 20240428-164148
attr experiment General
attr inifile omnetpp.ini
attr iterationvars $0=false
attr iterationvarsd false
attr iterationvarsf false-
attr measurement $0=false
attr network Supermarket
attr processid 11297
attr repetition 2
attr replication #2
attr resultdir results
attr runnumber 12
attr seedset 2
config network Supermarket
config repeat 10
config seed-set 2
config num-rngs 10
config **.use_random_strategy false

vector 0 Supermarket queueSizeOverTime:vector ETV
attr recordingmode vector
attr source updateQueue
attr title queueSizeOverTime
vector 1 Supermarket customerWaitingTime:vector ETV
attr interpolationmode none
attr recordingmode vector
attr source customerFinished
attr title "cust waiting time"
0	7	5.588130795164	1
0	13	11.542543068994	1
0	23	17.182898601517	1
0	38	22.455215001479	1
0	58	28.030704987003	2
0	60	28.742575801327	0
0	72	32.553844323265	1
0	77	33.491744385101	1
0	94	38.211840347969	0
0	100	38.820950797759	1
0	108	41.351071294165	0
0	118	44.116285811644	1
0	139	50.084162635263	2
0	144	51.282099284931	0
0	147	51.926467015407	1
0	150	52.595708227601	0
0	158	55.4639681892	1
0	171	60.511900529032	1
0	173	61.021828539086	0
0	190	66.119667604798	1
0	198	69.115497926483	0
0	202	69.920370104488	0
0	209	72.109464548295	1
0	224	77.624556785449	1
0	243	83.150181129692	0
0	248	83.603980387793	1
0	252	84.501038919669	0
0	260	87.259447849239	0
0	266	89.069192722905	1
0	280	94.490209583425	1
0	287	96.596358757816	0
0	298	99.763612312497	1
0	317	105.26984546706	2
0	332	109.8983122271	1
0	337	110.500599596183	2
0	341	111.811092984512	0
0	346	113.321593436645	0
0	351	115.305700657422	1
0	356	116.237070626811	1
0	363	119.66241454694	0
0	370	121.614899624371	1
0	385	126.838018576846	1
0	402	132.255444102686	2
0	403	132.283292518926	1
0	422	138.213765233986	2
0	424	139.030252024994	0
0	429	141.184382515728	0
0	438	143.41735643544	1
0	453	148.959283125119	1
0	473	154.035027934702	2
0	475	154.654597726651	1
0	494	159.361426660556	2
0	511	164.665682940276	2
0	512	164.798539329549	1
0	533	170.505833154775	2
0	538	172.054859586062	1
0	549	174.838401215149	1
0	551	174.894540532722	1
0	553	175.317568594126	0
0	558	175.768789211519	1
0	560	176.357029126605	0
0	567	178.537074224789	0
0	575	181.074173644649	1
0	589	186.552756469229	1
0	608	192.28379078279	2
0	624	197.284329241721	0
0	628	197.773455580228	1
0	633	199.40455251769	1
0	643	201.975717690653	0
0	650	203.074206574817	1
0	656	204.810162634937	0
0	669	209.066990734075	1
0	689	214.892052427164	2
0	710	219.935340474589	2
0	717	222.274861858458	0
0	727	225.669836545127	1
0	730	226.027688752509	1
0	738	228.467433284385	0
0	749	231.488585019714	1
0	755	232.914012093211	1
0	757	233.097321026492	0
0	759	234.079222921861	0
0	768	237.150466756427	1
0	776	240.777338736455	0
0	784	242.983665745936	1
0	800	248.437771410213	1
0	811	251.241080416713	0
0	814	252.427310624505	0
0	820	253.813566949216	1
0	836	259.474560771833	1
0	854	264.493807313495	2
0	861	266.576653161664	0
0	868	268.19236480421	0
0	876	269.899109630842	1
0	882	272.086348666691	0
0	890	275.798520341978	1
0	895	277.37996760907	1
0	909	281.365531798216	1
0	919	284.81617075647	0
0	929	287.131491300181	1
0	934	289.085675535952	0
0	945	292.15942795132	1
0	952	293.966875986775	0
0	956	295.623174511009	0
0	965	298.011011380234	1
0	982	303.993440902324	1
0	996	308.710752176351	0
0	1002	309.272923932641	1
0	1014	313.698966030842	0
0	1019	314.653762992236	1
0	1039	320.294020778264	2
0	1053	325.117693180449	0
0	1058	325.59014620492	1
0	1059	325.654357804681	1
0	1066	327.274698930559	0
0	1079	330.809101810676	1
0	1100	336.423731210872	2
0	1104	337.476652665178	0
0	1118	342.25933719659	1
0	1140	347.977788332382	2
0	1142	348.643579925058	1
0	1144	348.689501752959	1
0	1157	352.992424567461	2
0	1178	358.471483248983	2
0	1197	363.61376443901	2
0	1198	363.749686690163	1
0	1218	369.523125478531	2
0	1219	369.748763846231	0
0	1225	371.820209017372	1
0	1230	372.919717486945	1
0	1240	375.31123755779	1
0	1251	378.976185180245	0
0	1260	380.625219207023	1
0	1279	385.693793448153	2
0	1288	388.339955761212	0
0	1293	389.687256384289	1
0	1301	391.532632377696	1
0	1309	393.915521995859	1
0	1321	397.155909951542	0
0	1326	397.499995881458	1
0	1338	401.408430204726	0
0	1348	402.929235095856	1
0	1365	408.305210412479	2
0	1369	409.520683266104	0
0	1379	412.082965369102	0
0	1385	413.580973800504	1
0	1388	414.857358198029	0
0	1393	417.209607727123	1
0	1399	418.649403374874	1
0	1415	423.777912109158	1
0	1436	428.839690153719	2
0	1458	434.240695696556	2
0	1478	440.129774864995	2
0	1488	442.943174912477	1
0	1497	445.652377663992	1
0	1502	445.892675849375	2
0	1507	447.189307464748	0
0	1515	450.023355028359	1
0	1519	451.71013300505	0
0	1523	451.880895632551	1
0	1528	454.118658650432	0
0	1540	457.834453714778	1
0	1545	459.821692093853	1
0	1556	463.031896714353	1
0	1566	466.236203390868	0
0	1575	468.128740889252	1
0	1592	473.188712692586	2
0	1613	478.824404619866	2
0	1624	481.835681458701	0
0	1628	483.371877950034	0
0	1634	484.27982016839	1
0	1641	487.040611943345	1
0	1649	489.317622737725	0
0	1654	490.086922416463	1
0	1655	490.484099499415	0
0	1661	493.420037369126	1
0	1668	495.248212789651	1
0	1684	501.10016753152	1
0	1705	506.389276565518	2
0	1717	509.84082718845	1
0	1722	511.428865073365	0
0	1726	511.533258926822	1
0	1729	512.442017851862	0
0	1736	514.663870753719	0
0	1744	516.71172442683	1
0	1754	521.355879879668	0
0	1759	522.52510547894	1
0	1776	528.06735476409	1
0	1798	534.043872735462	2
0	1799	534.121380193042	0
0	1817	539.601549553684	1
0	1825	541.548241070823	1
0	1828	542.38163101801	0
0	1831	543.31733855151	0
0	1838	544.991060547064	1
0	1853	550.226246488512	1
0	1870	555.263085516867	2
0	1882	558.501175249926	0
0	1891	561.042022179113	1
0	1892	561.095120906599	1
0	1906	565.481671165793	0
0	1913	566.154213661793	1
0	1915	566.634287442662	0
0	1917	566.839932758711	0
0	1925	571.609489956752	0
0	1929	571.733185595366	1
0	1939	576.830401438986	1
0	1957	582.59856955544	1
0	1965	584.885014770785	0
0	1978	587.848718147025	1
0	1996	593.189652264815	2
0	2019	598.985632038208	2
0	2021	600.129242025082	1
0	2040	604.375754084669	2
0	2046	605.855131386312	0
0	2049	607.099123314837	1
0	2062	610.183841915334	1
0	2081	615.319990470771	0
0	2085	615.365179906598	1
0	2096	618.383940132333	1
0	2106	620.405833146534	2
0	2116	623.504956293733	0
0	2120	623.985877215628	1
0	2128	625.961585390148	1
0	2134	627.314571827531	0
0	2148	631.486789427697	1
0	2150	632.003042201278	0
0	2153	632.792916396399	0
0	2164	636.677671228069	1
0	2165	636.922872808295	0
0	2178	642.356269305571	1
0	2190	647.411397839895	1
0	2213	653.403586534316	2
0	2217	654.613000370912	0
0	2232	659.384273010304	1
0	2244	662.735004694201	0
0	2255	664.717084547736	1
0	2267	668.35287579987	1
0	2274	669.727490175514	2
0	2286	672.73665010452	0
0	2292	674.671229719298	0
0	2297	675.183036562752	1
0	2313	680.54037381918	1
0	2330	686.34907896898	0
0	2334	686.382737897568	1
0	2345	689.228191152564	0
0	2357	692.14208845049	1
0	2359	693.180096300664	1
0	2368	695.483473810596	0
0	2377	697.861436705802	1
0	2385	700.398292321826	0
0	2391	702.471610063687	0
0	2397	703.617955455555	1
0	2405	706.614539159344	0
0	2413	709.011104014701	1
0	2428	714.357784790684	1
0	2450	719.52315178234	2
0	2458	721.581177085869	0
0	2467	724.560609622856	1
0	2471	725.34437016351	1
0	2482	729.329752193996	0
0	2489	731.075744826345	1
0	2508	736.088317357701	2
0	2526	741.602089336606	2
0	2543	747.012969039379	2
0	2545	747.277576046178	1
0	2549	747.853941049425	1
0	2561	751.740988102156	0
0	2566	752.454964783041	1
0	2567	752.677121054728	1
0	2582	756.267845793859	0
0	2589	757.598092467755	1
0	2610	762.956625148186	2
0	2620	765.730173685237	0
0	2628	768.229841909369	1
0	2631	768.800911817347	1
0	2633	768.96108846017	0
0	2649	774.055711947612	1
0	2663	778.745950549022	0
0	2666	779.331888617131	0
0	2671	779.940715802133	1
0	2686	785.811097409807	1
0	2705	790.993661169659	2
0	2706	791.078470330451	0
0	2719	796.043703723928	1
0	2725	796.871000874553	1
0	2728	798.15307103074	0
0	2743	802.196974795543	1
0	2744	802.642290962623	0
0	2761	807.680813179816	1
0	2781	813.247645969036	2
0	2782	813.502446385449	0
0	2786	814.511869910403	0
0	2788	814.912892625198	0
0	2794	818.312109823338	1
0	2804	823.605220408644	1
0	2808	825.099188974825	1
0	2822	829.41474370798	1
0	2832	832.665492711588	0
0	2841	835.169481452554	1
0	2851	837.554733843308	0
0	2857	839.947526789503	0
0	2862	840.806156496284	1
0	2875	846.095149040687	1
0	2879	847.251982371903	0
0	2892	851.474479610565	1
0	2901	853.605208623922	0
0	2913	857.33927628002	1
0	2915	858.110940211684	0
0	2927	862.570875638977	0
0	2932	863.181830062297	1
0	2944	867.591188852443	0
0	2949	868.714937057345	1
0	2969	874.597071397583	1
0	2988	879.985759119502	2
0	3004	884.692454459379	0
0	3008	885.630648989462	1
0	3011	885.857817196751	0
0	3021	890.699665754334	0
0	3024	890.997907915616	1
0	3028	891.604639394673	1
0	3046	897.322507043368	1
0	3052	898.960239171981	0
0	3065	903.151239353929	1
0	3066	903.173038472534	0
0	3079	907.387899136169	0
0	3085	908.824627802473	1
0	3103	914.419333021155	1
0	3123	920.327057974179	2
0	3134	923.598244108957	0
0	3140	925.420638058333	0
0	3144	925.620997060788	1
0	3162	931.426303412997	1
0	3177	936.453485368634	1
0	3181	936.478718615136	2
0	3200	941.552123069064	2
0	3205	942.905498880543	1
0	3219	946.987881870474	2
0	3222	947.398177185329	0
0	3237	952.471407357137	1
0	3246	955.137504247365	0
0	3248	955.416455953381	0
0	3257	958.143412276636	1
0	3261	960.316994269495	1
0	3272	963.453066593501	1
0	3274	963.972214752459	0
0	3281	966.730205283151	0
0	3288	968.555018821265	1
0	3304	974.411252443212	1
0	3312	977.223185920854	1
0	3314	977.612974266869	0
0	3316	978.030920491903	0
0	3321	979.706386976525	0
0	3325	979.986530384048	1
0	3338	985.669652490643	1
0	3346	988.846559338738	0
0	3353	991.203759395284	1
0	3360	994.266624471869	0
0	3368	996.262682551983	1
0	3379	1001.287290777894	0
0	3383	1001.463725991779	1
0	3401	1006.906036027939	1
0	3417	1012.293346184538	0
0	3421	1012.579782286658	1
0	3433	1016.306530431379	0
0	3440	1018.07544657681	1
0	3452	1021.628020678646	0
0	3457	1022.705000055953	0
0	3462	1023.849864875664	1
0	3470	1026.952886601327	0
0	3478	1029.20696796663	1
0	3495	1034.483350235968	1
0	3504	1036.78901000123	0
0	3518	1040.423639151034	1
0	3526	1043.522013805805	0
0	3530	1044.430465015231	0
0	3535	1045.671346075366	1
0	3551	1050.960432796272	1
0	3558	1053.323227102517	0
0	3561	1053.690404726658	0
0	3567	1056.307962932157	1
0	3583	1062.179173571522	1
0	3584	1062.33923117665	0
0	3592	1064.86246974312	0
0	3600	1067.744285913649	1
0	3604	1069.035438446327	0
0	3615	1073.155776210128	1
0	3624	1076.778374974149	0
0	3630	1078.57381907408	1
0	3637	1081.13311180449	0
0	3645	1083.850858568213	1
0	3650	1086.222408658359	0
0	3654	1087.812863622674	0
0	3660	1089.797253149328	1
0	3673	1095.419171969638	1
0	3680	1098.030324158839	0
0	3688	1101.13853663206	1
0	3692	1102.715089614035	0
0	3703	1107.019265095935	1
0	3717	1112.117524530505	1
0	3737	1117.141435161232	2
0	3744	1120.068509315603	1
0	3756	1122.453713732771	2
0	3768	1126.107031900784	0
0	3774	1127.604752250946	1
0	3775	1127.759362090958	1
0	3785	1130.120403404695	0
0	3787	1130.365234950206	0
0	3795	1132.818972352425	1
0	3806	1137.852869341382	0
0	3811	1138.485261350636	1
0	3812	1138.667918851016	0
0	3822	1143.524493326197	0
0	3827	1144.15032577887	1
0	3837	1149.298041892236	1
0	3851	1154.813401399877	1
0	3858	1157.199038674938	0
0	3866	1159.452235592179	0
0	3870	1160.300206224665	1
0	3888	1165.670884432735	1
0	3904	1170.165579750085	0
0	3906	1170.707033391922	0
0	3911	1171.26841245475	1
0	3917	1173.375267818569	0
0	3927	1176.60921729286	1
0	3935	1180.362301135783	0
0	3941	1181.812119390581	1
0	3958	1187.688604671506	1
0	3965	1189.941444393012	0
0	3978	1193.427626943214	1
0	3980	1194.080977846285	0
0	3982	1194.608793827584	0
0	3994	1199.32918690075	1
0	4010	1204.845878022954	1
0	4011	1204.950021978814	0
0	4013	1205.111715971839	0
0	4025	1210.185996558515	1
0	4032	1213.723969071985	0
0	4040	1215.606302794067	1
0	4055	1221.463595981475	1
0	4067	1225.229202833724	0
0	4072	1226.510046692679	0
0	4076	1226.527544011826	1
0	4092	1231.987032241885	1
0	4095	1233.159852508918	0
0	4109	1237.247710155322	1
0	4113	1238.532064764176	0
0	4117	1239.659528654184	0
0	4126	1243.034315124851	1
0	4128	1244.128119591972	0
0	4141	1248.236071798716	1
0	4157	1254.185277716721	1
0	4174	1258.769370790336	0
0	4176	1259.192896474735	0
0	4183	1260.183425459544	1
0	4200	1266.072544228284	1
0	4209	1268.882751854485	0
0	4216	1271.094277449998	0
0	4221	1271.833475711288	1
0	4239	1277.234207288593	1
0	4260	1282.402790300546	2
0	4277	1287.608830284325	2
0	4279	1287.834217255119	1
0	4288	1290.128015349734	1
0	4299	1292.877979151669	2
0	4312	1295.360863813431	0
0	4316	1296.786691202198	0
0	4324	1298.620165880301	1
0	4335	1303.563001964237	0
0	4339	1304.048479354705	1
0	4354	1309.181271520792	0
0	4358	1309.772369827141	1
0	4359	1309.822946977567	0
0	4370	1315.151746619725	1
0	4374	1315.478834829523	1
0	4389	1321.237414932108	1
0	4402	1324.750266750808	0
0	4411	1327.151471807851	1
0	4422	1330.749463961806	0
0	4429	1332.251999508586	1
0	4433	1333.743175752109	0
0	4441	1336.369401699161	0
0	4448	1337.603169950187	1
0	4451	1339.037887277195	0
0	4462	1343.117288419973	1
0	4476	1348.185878358778	1
0	4478	1348.7248250402	0
0	4491	1353.196168943771	1
0	4498	1356.095155521757	0
0	4509	1358.936786405274	1
0	4522	1363.335685379916	0
0	4527	1364.114340621743	1
0	4549	1369.829587196231	2
0	4562	1374.77169261535	0
0	4566	1375.363374324281	1
0	4575	1377.527166975426	1
0	4581	1379.164102368171	0
0	4591	1381.075467334826	1
0	4602	1385.087729995602	0
0	4605	1385.884222975697	0
0	4610	1386.775765441124	1
0	4622	1392.25355914328	0
0	4627	1392.555091014829	1
0	4636	1396.836454347008	0
0	4642	1397.67861343338	1
0	4651	1401.414585637393	0
0	4657	1403.361410924698	1
0	4673	1409.260560540481	1
0	4679	1410.829477924036	0
0	4681	1411.037576566216	0
0	4691	1415.064497622893	1
0	4697	1418.506959663119	0
0	4706	1421.041549243963	1
0	4711	1422.829500694642	0
0	4714	1423.477060142204	0
0	4720	1426.449873834847	1
0	4732	1432.178003804757	1
0	4747	1438.171838347566	1
0	4763	1443.692922169341	0
0	4768	1443.855508527019	1
0	4777	1447.256106438695	0
0	4781	1448.320046119041	0
0	4786	1449.010792113374	1
0	4801	1454.30654265196	1
0	4802	1454.494225135188	0
0	4819	1460.001895740511	0
0	4823	1460.161038156598	1
0	4824	1460.260062092331	0
0	4832	1464.23345525132	0
0	4837	1466.139586172997	1
0	4850	1471.322888422058	1
0	4859	1475.085813212675	0
0	4866	1477.07760717417	1
0	4884	1482.458531056995	1
0	4908	1488.26521311025	2
0	4916	1490.649536463897	0
0	4921	1492.743440682183	0
0	4928	1493.880714621394	1
0	4941	1498.91961192293	1
0	4950	1501.527910683304	0
0	4958	1504.134217794169	1
0	4962	1504.618383574997	1
0	4984	1509.970374149968	2
0	5003	1515.814820219529	2
0	5024	1520.938782005803	2
0	5025	1521.806483138	0
0	5038	1526.340537294278	1
0	5043	1526.874676308594	1
0	5053	1529.62163490185	1
0	5056	1530.448832878378	1
0	5065	1532.598710422636	2
0	5084	1538.118553544161	2
0	5094	1540.95471932192	0
0	5105	1543.631106889806	1
0	5124	1548.88987476821	2
0	5129	1550.973095982568	0
0	5133	1551.229814509628	1
0	5142	1553.915968345245	1
0	5149	1555.813908958454	1
0	5157	1558.538113518036	1
0	5163	1559.183221002807	2
0	5167	1560.231616270379	0
0	5182	1564.356593926436	1
0	5184	1565.122492132126	0
0	5200	1570.35327431932	1
0	5217	1575.395792491035	2
0	5223	1576.950670540448	1
0	5226	1577.685256079301	1
0	5229	1578.025356162919	0
0	5238	1580.598172990139	1
0	5257	1585.857218428281	2
0	5263	1587.407695266766	1
0	5266	1587.920731556251	0
0	5279	1591.27869110694	1
0	5284	1592.519848939847	0
0	5292	1595.856203086903	0
0	5298	1596.791543188736	1
0	5312	1602.080298596991	1
0	5327	1606.717399229412	0
0	5332	1607.179148980647	1
0	5353	1613.134142894296	2
0	5368	1617.017961796839	1
0	5377	1618.962690638609	2
0	5385	1621.158454431104	0
0	5396	1624.207081029655	1
0	5412	1629.2374103046	2
0	5416	1630.213800058116	0
0	5425	1633.109407343433	0
0	5427	1633.704334762762	1
0	5432	1634.971249978056	1
0	5449	1640.849698729345	1
0	5453	1642.008458257069	0
0	5468	1645.908142824888	1
0	5474	1647.81499977177	0
0	5476	1648.156784820834	0
0	5484	1651.847523599631	1
0	5488	1651.869003832804	1
0	5502	1656.893210547509	1
0	5524	1662.258446158141	2
0	5531	1664.55727577582	0
0	5545	1667.759342465315	1
0	5550	1669.426186251335	1
0	5568	1672.952546538318	2
0	5569	1673.424234373846	0
0	5579	1676.943043768054	0
0	5584	1678.354545492677	1
0	5598	1683.415297556667	1
0	5599	1684.116176780429	0
0	5612	1688.512034236685	1
0	5617	1690.067227770109	1
0	5634	1693.98507518391	2
0	5646	1697.90801075264	0
0	5649	1698.587464171345	0
0	5655	1699.957387852947	1
0	5671	1705.822212068363	1
0	5675	1707.682484279153	1
0	5691	1711.766434993594	2
0	5710	1716.864471643697	2
0	5718	1718.82097241655	0
0	5731	1722.789438975043	1
0	5738	1725.103139037845	1
0	5752	1728.590923729585	2
0	5753	1728.849446097156	1
0	5764	1732.160325075268	0
0	5766	1732.380859555673	1
0	5769	1732.933928083162	0
0	5775	1734.28848391259	1
0	5791	1739.654634538106	1
0	5811	1745.272624389501	2
0	5833	1750.946371867321	2
0	5844	1754.884147599453	1
0	5851	1756.559947855188	1
0	5855	1756.889497929718	2
0	5869	1761.587533749638	0
0	5871	1761.672329855846	0
0	5876	1762.756733539514	1
0	5891	1768.554269839776	1
0	5915	1774.126354308333	2
0	5929	1778.785334059851	0
0	5932	1779.213595734325	1
0	5938	1780.052640211768	1
0	5939	1780.079828866989	1
0	5958	1785.095776814734	2
0	5964	1786.591810581971	0
0	5978	1790.935097552137	1
0	5985	1792.745998215746	0
0	5990	1795.101676860244	0
0	5996	1796.166309495456	1
0	6008	1801.501868584193	1
0	6026	1807.064081967576	0
0	6030	1807.146483693039	1
0	6046	1812.822881151689	1
0	6050	1813.109867824707	2
0	6072	1818.779782967875	2
0	6080	1820.928665284416	0
0	6090	1824.076514520915	1
0	6104	1828.763746764161	1
0	6107	1829.343237900175	0
0	6111	1829.360322392545	1
0	6118	1831.726410373229	0
0	6129	1834.784943635575	1
0	6146	1840.23975945101	1
0	6151	1840.644646422006	2
0	6152	1840.808775284559	0
0	6170	1846.555340692866	1
0	6190	1851.96470843791	2
0	6203	1856.110264865332	1
0	6207	1857.030474425873	0
0	6213	1857.548534380039	1
0	6220	1859.055963919615	1
0	6232	1862.65655368753	0
0	6239	1863.335872657131	1
0	6246	1865.605171189759	0
0	6252	1867.251958213629	0
0	6256	1868.654047397663	1
0	6271	1873.824547817464	1
0	6292	1879.30500841746	2
0	6301	1881.69967092201	0
0	6314	1885.260652004973	1
0	6325	1889.076389324269	1
0	6329	1889.867319143843	0
0	6332	1890.458869329304	0
0	6337	1890.669708184198	1
0	6344	1893.305596902383	0
0	6352	1896.330986699088	1
0	6367	1901.806783160892	1
0	6373	1903.3960124976	0
0	6375	1903.972718306001	0
0	6377	1904.004779188659	0
0	6384	1907.597320226253	1
0	6394	1912.617195481317	0
0	6398	1913.209767759777	1
0	6408	1918.887979543069	1
0	6416	1922.723418773967	0
0	6423	1924.407591330818	1
0	6424	1924.452113048522	0
0	6436	1930.296574020059	1
0	6443	1933.885110647184	0
0	6450	1935.652336586266	1
0	6459	1939.501785808707	0
0	6466	1941.40010012756	1
0	6482	1946.469860062235	1
0	6496	1951.339525594841	0
0	6501	1951.832078877603	1
0	6519	1957.114138746401	2
0	6524	1958.746330260297	1
0	6540	1962.587279243627	2
0	6542	1963.264845259604	0
0	6557	1968.012947357725	1
0	6560	1968.741447459322	0
0	6571	1973.621761309796	1
0	6576	1973.730793898226	1
0	6589	1977.909401020734	0
0	6596	1979.089505481533	1
0	6608	1983.374034490901	0
0	6616	1984.320462431525	1
0	6619	1985.735480096774	0
0	6631	1990.129497773827	0
0	6635	1990.181293879169	1
0	6638	1991.625870811985	0
0	6651	1996.062793683493	1
0	6663	2000.937722462927	0
0	6667	2001.094432993326	1
0	6670	2002.119449343998	0
0	6680	2006.361673322972	1
0	6694	2011.73327915906	1
0	6696	2012.179304076358	0
0	6708	2016.054583014569	0
0	6712	2017.112537748181	1
0	6721	2020.706265033807	0
0	6724	2021.79480189865	0
0	6728	2022.812955983217	1
0	6739	2028.688497308643	1
0	6755	2034.563463979635	1
0	6758	2035.315941432957	0
0	6773	2039.622378018919	1
0	6775	2039.752579071443	0
0	6777	2040.365152322453	0
0	6790	2045.18269775645	1
0	6807	2051.164982538672	1
0	6822	2056.316107175083	0
0	6828	2056.970554242844	1
0	6845	2062.126686085249	0
0	6851	2062.784429113848	1
0	6862	2066.293251606288	0
0	6864	2066.659158874655	0
0	6871	2068.514010614252	1
0	6874	2069.419902532596	0
0	6881	2073.345706063788	0
0	6885	2073.619213487257	1
0	6895	2079.023502786181	1
0	6911	2084.679985990983	1
0	6930	2090.260478273269	2
0	6950	2095.407436069103	2
0	6959	2098.009957424135	1
0	6961	2098.503611516443	0
0	6971	2100.711697073655	1
0	6976	2102.264660101851	0
0	6982	2103.646295424783	1
0	6991	2105.938134420898	1
0	7004	2110.081445966616	0
0	7011	2111.623478688535	1
0	7018	2113.248906218217	0
0	7021	2113.956307489775	0
0	7023	2114.853970274565	0
0	7030	2117.418343496511	1
0	7039	2122.786500683056	1
0	7053	2128.330329570921	1
0	7068	2133.113517245276	0
0	7073	2133.420135895723	1
0	7086	2137.319192643978	0
0	7092	2139.070100251238	0
0	7096	2139.391915547896	1
0	7101	2140.632028390887	0
0	7109	2144.654871554814	0
0	7113	2145.221874025885	1
0	7125	2150.514650822386	1
0	7142	2156.336770266296	1
0	7155	2160.308232656566	0
0	7158	2160.749800633757	0
0	7164	2162.307130459698	1
0	7173	2166.731754419049	0
0	7179	2167.452976551142	1
0	7188	2170.886439733442	0
0	7190	2171.509501780851	0
0	7195	2172.864003312078	1
0	7198	2174.725412525471	0
0	7205	2178.5000435547	1
0	7217	2183.952657511461	1
0	7231	2189.151441205063	1
0	7242	2192.424058558888	0
0	7251	2194.409011898565	1
0	7268	2199.712589635166	0
0	7270	2199.998354725191	0
0	7272	2200.146333479674	0
0	7276	2200.36970124557	1
0	7283	2204.813891898961	0
0	7289	2205.979542949706	1
0	7293	2208.137988699604	0
0	7299	2211.364473273515	1
0	7310	2216.811726603194	1
0	7323	2222.119298103152	0
0	7327	2222.231511125809	1
0	7329	2223.414942651292	0
0	7334	2225.013879244452	0
0	7340	2228.077762831703	1
0	7351	2234.062660182828	1
0	7353	2235.130788912998	0
0	7366	2239.863413254034	1
0	7381	2245.806831015975	1
0	7383	2246.650443363355	0
0	7399	2251.797267481687	1
0	7403	2252.796689299403	0
0	7413	2256.599742638531	0
0	7418	2257.094349554975	1
0	7432	2262.116478006125	1
0	7452	2267.404413727114	2
0	7469	2272.943755262533	2
0	7474	2274.42711781303	0
0	7488	2278.724916553126	1
0	7490	2279.516095634787	1
0	7511	2284.674528121717	2
0	7520	2286.893850587311	0
0	7522	2287.013648711961	1
0	7533	2290.26739170286	1
0	7555	2295.932823980927	2
0	7567	2300.049860774656	1
0	7576	2301.872484088178	2
0	7583	2303.301829038891	1
0	7596	2306.979663634791	0
0	7601	2307.189939858626	1
0	7610	2309.767746348168	0
0	7620	2312.508959445172	1
0	7643	2318.024941594574	2
0	7649	2319.367174155079	1
0	7651	2319.606508441736	0
0	7664	2323.293921153994	1
0	7665	2323.483102013007	0
0	7673	2326.629864867084	1
0	7682	2328.647440572038	1
0	7700	2334.091603393202	2
0	7712	2337.36560122273	0
0	7724	2339.821991971229	1
0	7733	2343.301580353525	0
0	7735	2343.678016499621	0
0	7741	2345.108203867684	1
0	7753	2350.334859217518	1
0	7773	2355.777797873597	0
0	7778	2355.910162246321	1
0	7782	2357.051118675153	1
0	7788	2357.930246708566	0
0	7800	2361.515855875798	1
0	7814	2366.088409336518	0
0	7819	2366.868927940494	1
0	7840	2372.695662250277	2
0	7846	2374.240394560157	0
0	7861	2378.277563416167	1
0	7881	2383.598521664972	2
0	7882	2383.818808243844	0
0	7884	2384.77717242029	1
0	7892	2387.937491597142	0
0	7898	2388.679216372781	1
0	7905	2391.899136107301	0
0	7913	2394.43611015589	1
0	7928	2399.451833099826	1
0	7948	2404.641471296317	2
0	7963	2408.565978214144	1
0	7970	2409.800862374716	2
0	7971	2410.280528825242	0
0	7974	2410.542910688675	0
0	7978	2411.854882111656	1
0	7986	2415.34321337333	1
0	7989	2416.921098415621	1
0	8003	2420.765094792937	1
0	8022	2426.371932757554	2
0	8032	2429.744472786552	0
0	8040	2431.374132447644	1
0	8043	2432.519462043999	1
0	8052	2434.708599782777	0
0	8060	2436.573355928297	1
0	8080	2442.511248814176	2
0	8090	2445.189717908856	0
0	8101	2448.29267689353	1
0	8107	2449.909050176619	0
0	8121	2454.275119948435	1
0	8126	2455.035227852758	0
0	8141	2460.191913279939	1
0	8151	2462.872609616139	1
0	8162	2465.6045338735	2
0	8183	2470.871215443361	2
0	8190	2473.598991948178	1
0	8193	2474.303529385828	0
0	8203	2476.450084491401	1
0	8207	2477.591448322638	0
0	8215	2480.254437471627	1
0	8217	2480.987654097495	0
0	8221	2481.45866440842	1
0	8236	2487.200619224692	1
0	8256	2492.771155269234	0
0	8260	2492.917619231157	1
0	8277	2497.968798643444	2
0	8292	2501.903455011196	1
0	8294	2502.499914178742	0
0	8300	2503.047480958514	1
0	8306	2505.054180508129	0
0	8317	2508.128510146169	1
0	8324	2509.444965489325	0
0	8328	2510.991697905935	0
0	8333	2512.881392134235	0
0	8338	2514.054171472788	1
0	8350	2519.848658100469	1
0	8365	2525.76740086684	1
0	8367	2526.170445927768	0
0	8386	2531.723808272509	1
0	8394	2534.405223641195	0
0	8408	2537.640488127479	1
0	8413	2539.24302629498	0
0	8415	2539.323897701222	0
0	8425	2543.505372077226	1
0	8440	2548.631990642053	1
0	8443	2549.761024008622	0
0	8457	2554.289618698181	1
0	8464	2557.169912316369	0
0	8471	2559.80683730496	0
0	8476	2560.033839357318	1
0	8493	2565.751704727066	1
0	8501	2568.381098928861	0
0	8512	2571.511165050556	1
0	8516	2573.062504933098	0
0	8525	2576.261571480194	0
0	8530	2577.39727847278	1
0	8545	2582.89371677325	1
0	8555	2585.136036187874	0
0	8566	2588.339049012399	1
0	8567	2588.731374965165	0
0	8583	2594.060909219551	1
0	8588	2594.952821124462	0
0	8598	2598.703785184071	0
0	8602	2599.276960591552	1
0	8617	2604.738074623048	1
0	8621	2605.801241900888	0
0	8635	2609.908868608763	1
0	8650	2614.364322292967	0
0	8653	2615.120049131565	0
0	8658	2615.781400533625	1
0	8674	2621.108067808206	1
0	8695	2627.031397473532	2
0	8705	2629.967038628877	0
0	8708	2630.277661742175	1
0	8711	2630.666175726101	0
0	8718	2632.78693969408	1
0	8722	2634.706045567292	0
0	8726	2635.624260183074	0
0	8732	2638.560874806018	1
0	8738	2642.880787663743	0
0	8740	2643.423946290626	0
0	8744	2644.261138383066	1
0	8751	2649.728149926057	1
0	8757	2653.308985218406	0
0	8762	2655.209355870727	1
0	8776	2661.133494472131	1
0	8789	2666.140833644895	1
0	8808	2671.517695842544	2
0	8810	2671.549763376475	0
0	8821	2676.415005810209	0
0	8827	2677.411786707584	1
0	8831	2678.823706411639	1
0	8834	2679.673051601858	0
0	8845	2683.12226791028	1
0	8854	2686.578921951701	0
0	8862	2689.081146804849	1
0	8863	2689.19025642972	0
0	8873	2694.206309164642	1
0	8884	2698.073632108047	0
0	8891	2699.535089360551	1
0	8905	2704.869957145537	1
0	8907	2705.187199695035	0
0	8917	2709.008077608655	0
0	8923	2710.028692969355	1
0	8939	2715.872346648715	1
0	8946	2718.157431643109	0
0	8954	2720.793507715339	0
0	8958	2721.153256848922	1
0	8974	2726.684407671683	1
0	8981	2729.030472202112	0
0	8990	2731.559760865057	0
0	8995	2732.590528042058	1
0	9010	2738.076973739315	1
0	9027	2742.512486192282	0
0	9029	2743.408425334378	0
0	9033	2743.640113763979	1
0	9049	2749.62479495886	1
0	9059	2751.942094052913	0
0	9066	2754.411648673591	0
0	9068	2754.678111198012	0
0	9073	2755.535422340736	1
0	9085	2761.414213111161	1
0	9100	2766.879604343443	0
0	9104	2766.925955825488	1
0	9118	2772.276834104213	1
0	9133	2777.423803820976	0
0	9140	2777.869000746639	1
0	9153	2781.644315195855	0
0	9161	2783.558205323064	1
0	9168	2786.238903030406	0
0	9171	2787.081163967377	0
0	9180	2789.535506795396	1
0	9194	2794.583961367144	1
0	9213	2799.597569341308	2
0	9216	2800.096529748759	0
0	9225	2803.521743765801	1
0	9228	2804.355372587455	0
0	9234	2805.009890190095	1
0	9242	2809.224426888515	0
0	9249	2810.15851422027	1
0	9265	2815.542153202	1
0	9285	2820.854059176755	2
0	9309	2826.721478280847	2
0	9312	2827.691348470866	1
0	9316	2828.571811593955	0
0	9319	2829.375632502723	0
0	9327	2832.413997279017	1
0	9328	2832.911378530904	1
0	9342	2837.594104904917	1
0	9349	2839.791134182833	0
0	9353	2840.566811540981	0
0	9360	2843.419816307261	1
0	9377	2849.192983634773	1
0	9384	2851.002268319719	0
0	9388	2851.794166515468	0
0	9399	2855.004637354057	1
0	9411	2859.954582371053	0
0	9415	2860.42389278184	1
0	9433	2866.378216693879	1
0	9445	2869.814423263308	0
0	9450	2871.31520000694	0
0	9455	2872.078481064181	1
0	9456	2872.633914719804	0
0	9458	2872.784452092139	0
0	9465	2877.225763418249	1
0	9476	2882.927727085774	1
0	9494	2888.495956545931	1
0	9507	2893.143749065584	0
0	9514	2894.34574519913	1
0	9532	2899.54033172061	2
0	9540	2901.734245469561	0
0	9545	2903.388870175814	1
0	9552	2904.688313632042	1
0	9564	2909.204599771535	0
0	9570	2910.21224795352	1
0	9572	2910.699960024215	0
0	9580	2913.811059048634	0
0	9586	2915.263571389721	1
0	9598	2919.880128795983	0
0	9604	2921.09037116566	1
0	9619	2926.589799009266	1
0	9623	2928.155769786218	0
0	9637	2931.635179749925	1
0	9638	2931.653841769791	0
0	9645	2933.833568535981	0
0	9655	2937.364477195081	1
0	9659	2938.766812679477	0
0	9670	2942.602765823717	1
0	9677	2945.618732748207	0
0	9685	2947.770593144933	1
0	9690	2950.120821966677	0
0	9692	2950.237953980456	0
0	9698	2953.724043862198	1
0	9700	2954.924559937793	0
0	9705	2958.468192402741	0
0	9709	2958.909497617281	1
0	9712	2963.324715723868	0
0	9716	2963.934057041074	1
0	9722	2969.812636866703	1
0	9725	2971.825246674012	0
0	9732	2975.271318139744	1
0	9743	2980.474537331381	1
0	9746	2981.429757155249	0
0	9748	2982.364540468322	0
0	9755	2986.077178440758	1
0	9763	2991.632085563617	0
0	9768	2992.075845524439	1
0	9779	2997.735379609282	1
0	9785	3000.518684999322	0
0	9792	3003.212554254339	1
0	9797	3005.875479789222	0
0	9805	3008.991768034178	1
0	9819	3014.600434759868	1
0	9826	3017.360592569227	0
0	9836	3020.537220295755	1
0	9842	3022.099583393665	0
0	9852	3025.918763834987	1
0	9873	3031.280283372387	2
0	9877	3032.468142005269	0
0	9891	3036.350187807115	1
0	9897	3037.677889932533	1
0	9915	3041.717180515411	2
0	9917	3042.263307592367	0
0	9933	3047.279798515611	1
0	9952	3053.170858995295	2
0	9953	3053.295107842194	0
0	9965	3058.154915850843	0
0	9970	3058.757302758754	1