version 3
run General-0-20240430-18:12:25-6016
attr configname General
attr datetime 20240430-18:12:25
attr datetimef 20240430-181225
attr experiment General
attr inifile omnetpp.ini
attr iterationvars $0=true
attr iterationvarsd true
attr iterationvarsf true-
attr measurement $0=true
attr network Supermarket
attr processid 6016
attr repetition 0
attr replication #0
attr resultdir results
attr runnumber 0
attr seedset 0
config network Supermarket
config repeat 10
config seed-set 0
config num-rngs 10
config **.use_random_strategy true

vector 0 Supermarket queueSizeOverTime:vector ETV
attr recordingmode vector
attr source updateQueue
attr title queueSizeOverTime
vector 1 Supermarket customerWaitingTime:vector ETV
attr interpolationmode none
attr recordingmode vector
attr source customerFinished
attr title "cust waiting time"
0	7	5.548813502304	1
0	13	11.264002867276	1
0	25	16.887566563673	1
0	41	22.416461485205	2
0	50	26.791661192778	0
0	53	27.017236215412	0
0	57	28.286548736272	1
0	58	28.581857628888	1
0	62	31.23053200927	0
1	50	26.791661192778	15.527658325502
1	53	27.017236215412	21.468422713108
1	58	28.581857628888	11.694291065215
1	62	31.23053200927	2.943983272998
0	69	33.868568527512	1
0	78	38.956236537662	0
0	83	39.054900872055	1
1	78	38.956236537662	5.08766801015
0	92	44.671834870707	1
0	100	47.557456961251	0
0	104	48.586546475649	0
0	109	50.369466066127	1
0	111	51.593179322314	0
0	118	55.733176839537	1
0	122	57.769223643234	0
0	128	60.835221646353	2
0	132	65.647793372744	1
0	136	66.249590234365	1
0	147	71.359965373529	1
0	154	74.687745022937	0
0	161	76.982811466791	2
0	162	77.646080684499	1
0	176	82.722075048136	2
1	100	47.557456961251	2.885622090544
1	104	48.586546475649	26.170084990444
1	111	51.593179322314	12.538278450259
1	122	57.769223643234	7.399757577107
1	132	65.647793372744	9.914616533207
1	154	74.687745022937	3.327779649408
1	162	77.646080684499	16.810859038146

